version 2
run AODVVANET-Orlando-100-0-20150813-15:23:39-8851
attr configname AODVVANET-Orlando-100
attr datetime 20150813-15:23:39
attr experiment AODVVANET-Orlando-100
attr inifile omnetpp.ini
attr iterationvars ""
attr iterationvars2 $repetition=0
attr measurement ""
attr network AODVVANET
attr processid 8851
attr repetition 0
attr replication #0
attr resultdir results
attr runnumber 0
attr seedset 0

vector 2  AODVVANET.rsu[0].wlan.mgmt  dataQueueLen:vector  ETV
attr interpolationmode  sample-hold
attr title  "data queue length, vector"
vector 13  AODVVANET.rsu[0].wlan.mac  RadioState  ETV
attr enum  "IDLE=0, OFF=4, RECV=1, SLEEP=3, TRANSMIT=2"
attr enumname  RadioState
vector 12  AODVVANET.rsu[0].wlan.mac  State  ETV
attr enum  "BACKOFF=3, DEFER=1, IDLE=0, RECEIVE=8, WAITACK=4, WAITAIFS=2, WAITCTS=6, WAITMULTICAST=5, WAITSIFS=7"
attr enumname  Ieee80211Mac
vector 8  AODVVANET.rsu[0].wlan.radio  bitrate:vector  ETV
attr interpolationmode  sample-hold
attr title  "tx bitrate, vector"
attr unit  bps
vector 10  AODVVANET.rsu[0].wlan.radio  radioState:vector  ETV
attr interpolationmode  sample-hold
attr title  "radio state (enum), vector"
vector 9  AODVVANET.rsu[0].wlan.radio  channelNo:vector  ETV
attr interpolationmode  sample-hold
attr title  "channel no, vector"
vector 25  AODVVANET.vehicle[0].wlan.mgmt  dataQueueLen:vector  ETV
attr interpolationmode  sample-hold
attr title  "data queue length, vector"
vector 43  AODVVANET.vehicle[0].manetrouting.wlan[0].mgmt  dataQueueLen:vector  ETV
attr interpolationmode  sample-hold
attr title  "data queue length, vector"
vector 58  AODVVANET.vehicle[0].wlan.mac  RadioState  ETV
attr enum  "IDLE=0, OFF=4, RECV=1, SLEEP=3, TRANSMIT=2"
attr enumname  RadioState
vector 57  AODVVANET.vehicle[0].wlan.mac  State  ETV
attr enum  "BACKOFF=3, DEFER=1, IDLE=0, RECEIVE=8, WAITACK=4, WAITAIFS=2, WAITCTS=6, WAITMULTICAST=5, WAITSIFS=7"
attr enumname  Ieee80211Mac
vector 60  AODVVANET.vehicle[0].wlan.mac  "throughput AC0"  ETV
vector 64  AODVVANET.vehicle[0].manetrouting.wlan[0].mac  RadioState  ETV
attr enum  "IDLE=0, OFF=4, RECV=1, SLEEP=3, TRANSMIT=2"
attr enumname  RadioState
vector 63  AODVVANET.vehicle[0].manetrouting.wlan[0].mac  State  ETV
attr enum  "BACKOFF=3, DEFER=1, IDLE=0, RECEIVE=8, WAITACK=4, WAITAIFS=2, WAITCTS=6, WAITMULTICAST=5, WAITSIFS=7"
attr enumname  Ieee80211Mac
vector 66  AODVVANET.vehicle[0].manetrouting.wlan[0].mac  "throughput AC0"  ETV
vector 31  AODVVANET.vehicle[0].wlan.radio  bitrate:vector  ETV
attr interpolationmode  sample-hold
attr title  "tx bitrate, vector"
attr unit  bps
vector 33  AODVVANET.vehicle[0].wlan.radio  radioState:vector  ETV
attr interpolationmode  sample-hold
attr title  "radio state (enum), vector"
vector 32  AODVVANET.vehicle[0].wlan.radio  channelNo:vector  ETV
attr interpolationmode  sample-hold
attr title  "channel no, vector"
vector 49  AODVVANET.vehicle[0].manetrouting.wlan[0].radio  bitrate:vector  ETV
attr interpolationmode  sample-hold
attr title  "tx bitrate, vector"
attr unit  bps
vector 51  AODVVANET.vehicle[0].manetrouting.wlan[0].radio  radioState:vector  ETV
attr interpolationmode  sample-hold
attr title  "radio state (enum), vector"
vector 50  AODVVANET.vehicle[0].manetrouting.wlan[0].radio  channelNo:vector  ETV
attr interpolationmode  sample-hold
attr title  "channel no, vector"
vector 53  AODVVANET.vehicle[0].mobility  posx  ETV
vector 54  AODVVANET.vehicle[0].mobility  posy  ETV
vector 18  AODVVANET.vehicle[0].udp  sentPk:vector(packetBytes)  ETV
attr interpolationmode  none
attr source  sentPk
attr title  "packets sent, vector(packetBytes)"
vector 23  AODVVANET.vehicle[0].networkLayer.arp  sentReq:vector  ETV
attr title  "ARP request sent, vector"
vector 29  AODVVANET.vehicle[0].wlan.mac  rcvdPkFromHL:vector(packetBytes)  ETV
attr interpolationmode  none
attr source  packetReceivedFromUpper
attr title  "packets received from higher layer, vector(packetBytes)"
vector 28  AODVVANET.vehicle[0].wlan.mac  sentDownPk:vector(packetBytes)  ETV
attr interpolationmode  none
attr source  packetSentToLower
attr title  "packets sent to lower layer, vector(packetBytes)"
vector 68  AODVVANET.vehicle[0].manetrouting.wlan[0].radio  snirVector  ETV
vector 48  AODVVANET.vehicle[0].manetrouting.wlan[0].mac  rcvdPkFromLL:vector(packetBytes)  ETV
attr interpolationmode  none
attr source  packetReceivedFromLower
attr title  "packets received from lower layer, vector(packetBytes)"
vector 45  AODVVANET.vehicle[0].manetrouting.wlan[0].mac  passedUpPk:vector(packetBytes)  ETV
attr interpolationmode  none
attr source  packetSentToUpper
attr title  "packets passed to higher layer, vector(packetBytes)"
vector 55  AODVVANET.vehicle[0].mobility  speed  ETV
vector 56  AODVVANET.vehicle[0].mobility  acceleration  ETV
vector 40  AODVVANET.vehicle[0].manetrouting.wlan[0].agent  sentRequest:vector  ETV
attr title  "sent requests, vector"
vector 47  AODVVANET.vehicle[0].manetrouting.wlan[0].mac  rcvdPkFromHL:vector(packetBytes)  ETV
attr interpolationmode  none
attr source  packetReceivedFromUpper
attr title  "packets received from higher layer, vector(packetBytes)"
vector 46  AODVVANET.vehicle[0].manetrouting.wlan[0].mac  sentDownPk:vector(packetBytes)  ETV
attr interpolationmode  none
attr source  packetSentToLower
attr title  "packets sent to lower layer, vector(packetBytes)"
vector 62  AODVVANET.vehicle[0].wlan.radio  snirVector  ETV
vector 30  AODVVANET.vehicle[0].wlan.mac  rcvdPkFromLL:vector(packetBytes)  ETV
attr interpolationmode  none
attr source  packetReceivedFromLower
attr title  "packets received from lower layer, vector(packetBytes)"
vector 27  AODVVANET.vehicle[0].wlan.mac  passedUpPk:vector(packetBytes)  ETV
attr interpolationmode  none
attr source  packetSentToUpper
attr title  "packets passed to higher layer, vector(packetBytes)"
vector 42  AODVVANET.vehicle[0].manetrouting.wlan[0].agent  dropConfirm:vector  ETV
attr title  "dropped confirms, vector"
vector 76  AODVVANET.vehicle[1].wlan.mgmt  dataQueueLen:vector  ETV
attr interpolationmode  sample-hold
attr title  "data queue length, vector"
vector 94  AODVVANET.vehicle[1].manetrouting.wlan[0].mgmt  dataQueueLen:vector  ETV
attr interpolationmode  sample-hold
attr title  "data queue length, vector"
vector 109  AODVVANET.vehicle[1].wlan.mac  RadioState  ETV
attr enum  "IDLE=0, OFF=4, RECV=1, SLEEP=3, TRANSMIT=2"
attr enumname  RadioState
vector 108  AODVVANET.vehicle[1].wlan.mac  State  ETV
attr enum  "BACKOFF=3, DEFER=1, IDLE=0, RECEIVE=8, WAITACK=4, WAITAIFS=2, WAITCTS=6, WAITMULTICAST=5, WAITSIFS=7"
attr enumname  Ieee80211Mac
vector 111  AODVVANET.vehicle[1].wlan.mac  "throughput AC0"  ETV
vector 115  AODVVANET.vehicle[1].manetrouting.wlan[0].mac  RadioState  ETV
attr enum  "IDLE=0, OFF=4, RECV=1, SLEEP=3, TRANSMIT=2"
attr enumname  RadioState
vector 114  AODVVANET.vehicle[1].manetrouting.wlan[0].mac  State  ETV
attr enum  "BACKOFF=3, DEFER=1, IDLE=0, RECEIVE=8, WAITACK=4, WAITAIFS=2, WAITCTS=6, WAITMULTICAST=5, WAITSIFS=7"
attr enumname  Ieee80211Mac
vector 117  AODVVANET.vehicle[1].manetrouting.wlan[0].mac  "throughput AC0"  ETV
vector 82  AODVVANET.vehicle[1].wlan.radio  bitrate:vector  ETV
attr interpolationmode  sample-hold
attr title  "tx bitrate, vector"
attr unit  bps
vector 84  AODVVANET.vehicle[1].wlan.radio  radioState:vector  ETV
attr interpolationmode  sample-hold
attr title  "radio state (enum), vector"
vector 83  AODVVANET.vehicle[1].wlan.radio  channelNo:vector  ETV
attr interpolationmode  sample-hold
attr title  "channel no, vector"
vector 100  AODVVANET.vehicle[1].manetrouting.wlan[0].radio  bitrate:vector  ETV
attr interpolationmode  sample-hold
attr title  "tx bitrate, vector"
attr unit  bps
vector 102  AODVVANET.vehicle[1].manetrouting.wlan[0].radio  radioState:vector  ETV
attr interpolationmode  sample-hold
attr title  "radio state (enum), vector"
vector 101  AODVVANET.vehicle[1].manetrouting.wlan[0].radio  channelNo:vector  ETV
attr interpolationmode  sample-hold
attr title  "channel no, vector"
vector 104  AODVVANET.vehicle[1].mobility  posx  ETV
vector 105  AODVVANET.vehicle[1].mobility  posy  ETV
vector 69  AODVVANET.vehicle[1].udp  sentPk:vector(packetBytes)  ETV
attr interpolationmode  none
attr source  sentPk
attr title  "packets sent, vector(packetBytes)"
vector 74  AODVVANET.vehicle[1].networkLayer.arp  sentReq:vector  ETV
attr title  "ARP request sent, vector"
vector 80  AODVVANET.vehicle[1].wlan.mac  rcvdPkFromHL:vector(packetBytes)  ETV
attr interpolationmode  none
attr source  packetReceivedFromUpper
attr title  "packets received from higher layer, vector(packetBytes)"
vector 79  AODVVANET.vehicle[1].wlan.mac  sentDownPk:vector(packetBytes)  ETV
attr interpolationmode  none
attr source  packetSentToLower
attr title  "packets sent to lower layer, vector(packetBytes)"
vector 119  AODVVANET.vehicle[1].manetrouting.wlan[0].radio  snirVector  ETV
vector 99  AODVVANET.vehicle[1].manetrouting.wlan[0].mac  rcvdPkFromLL:vector(packetBytes)  ETV
attr interpolationmode  none
attr source  packetReceivedFromLower
attr title  "packets received from lower layer, vector(packetBytes)"
vector 106  AODVVANET.vehicle[1].mobility  speed  ETV
vector 91  AODVVANET.vehicle[1].manetrouting.wlan[0].agent  sentRequest:vector  ETV
attr title  "sent requests, vector"
vector 107  AODVVANET.vehicle[1].mobility  acceleration  ETV
vector 98  AODVVANET.vehicle[1].manetrouting.wlan[0].mac  rcvdPkFromHL:vector(packetBytes)  ETV
attr interpolationmode  none
attr source  packetReceivedFromUpper
attr title  "packets received from higher layer, vector(packetBytes)"
vector 97  AODVVANET.vehicle[1].manetrouting.wlan[0].mac  sentDownPk:vector(packetBytes)  ETV
attr interpolationmode  none
attr source  packetSentToLower
attr title  "packets sent to lower layer, vector(packetBytes)"
vector 113  AODVVANET.vehicle[1].wlan.radio  snirVector  ETV
vector 81  AODVVANET.vehicle[1].wlan.mac  rcvdPkFromLL:vector(packetBytes)  ETV
attr interpolationmode  none
attr source  packetReceivedFromLower
attr title  "packets received from lower layer, vector(packetBytes)"
vector 78  AODVVANET.vehicle[1].wlan.mac  passedUpPk:vector(packetBytes)  ETV
attr interpolationmode  none
attr source  packetSentToUpper
attr title  "packets passed to higher layer, vector(packetBytes)"
vector 96  AODVVANET.vehicle[1].manetrouting.wlan[0].mac  passedUpPk:vector(packetBytes)  ETV
attr interpolationmode  none
attr source  packetSentToUpper
attr title  "packets passed to higher layer, vector(packetBytes)"
vector 93  AODVVANET.vehicle[1].manetrouting.wlan[0].agent  dropConfirm:vector  ETV
attr title  "dropped confirms, vector"
vector 127  AODVVANET.vehicle[2].wlan.mgmt  dataQueueLen:vector  ETV
attr interpolationmode  sample-hold
attr title  "data queue length, vector"
vector 145  AODVVANET.vehicle[2].manetrouting.wlan[0].mgmt  dataQueueLen:vector  ETV
attr interpolationmode  sample-hold
attr title  "data queue length, vector"
vector 160  AODVVANET.vehicle[2].wlan.mac  RadioState  ETV
attr enum  "IDLE=0, OFF=4, RECV=1, SLEEP=3, TRANSMIT=2"
attr enumname  RadioState
vector 159  AODVVANET.vehicle[2].wlan.mac  State  ETV
attr enum  "BACKOFF=3, DEFER=1, IDLE=0, RECEIVE=8, WAITACK=4, WAITAIFS=2, WAITCTS=6, WAITMULTICAST=5, WAITSIFS=7"
attr enumname  Ieee80211Mac
vector 162  AODVVANET.vehicle[2].wlan.mac  "throughput AC0"  ETV
vector 166  AODVVANET.vehicle[2].manetrouting.wlan[0].mac  RadioState  ETV
attr enum  "IDLE=0, OFF=4, RECV=1, SLEEP=3, TRANSMIT=2"
attr enumname  RadioState
vector 165  AODVVANET.vehicle[2].manetrouting.wlan[0].mac  State  ETV
attr enum  "BACKOFF=3, DEFER=1, IDLE=0, RECEIVE=8, WAITACK=4, WAITAIFS=2, WAITCTS=6, WAITMULTICAST=5, WAITSIFS=7"
attr enumname  Ieee80211Mac
vector 168  AODVVANET.vehicle[2].manetrouting.wlan[0].mac  "throughput AC0"  ETV
vector 133  AODVVANET.vehicle[2].wlan.radio  bitrate:vector  ETV
attr interpolationmode  sample-hold
attr title  "tx bitrate, vector"
attr unit  bps
vector 135  AODVVANET.vehicle[2].wlan.radio  radioState:vector  ETV
attr interpolationmode  sample-hold
attr title  "radio state (enum), vector"
vector 134  AODVVANET.vehicle[2].wlan.radio  channelNo:vector  ETV
attr interpolationmode  sample-hold
attr title  "channel no, vector"
vector 151  AODVVANET.vehicle[2].manetrouting.wlan[0].radio  bitrate:vector  ETV
attr interpolationmode  sample-hold
attr title  "tx bitrate, vector"
attr unit  bps
vector 153  AODVVANET.vehicle[2].manetrouting.wlan[0].radio  radioState:vector  ETV
attr interpolationmode  sample-hold
attr title  "radio state (enum), vector"
vector 152  AODVVANET.vehicle[2].manetrouting.wlan[0].radio  channelNo:vector  ETV
attr interpolationmode  sample-hold
attr title  "channel no, vector"
vector 155  AODVVANET.vehicle[2].mobility  posx  ETV
vector 156  AODVVANET.vehicle[2].mobility  posy  ETV
vector 120  AODVVANET.vehicle[2].udp  sentPk:vector(packetBytes)  ETV
attr interpolationmode  none
attr source  sentPk
attr title  "packets sent, vector(packetBytes)"
vector 125  AODVVANET.vehicle[2].networkLayer.arp  sentReq:vector  ETV
attr title  "ARP request sent, vector"
vector 131  AODVVANET.vehicle[2].wlan.mac  rcvdPkFromHL:vector(packetBytes)  ETV
attr interpolationmode  none
attr source  packetReceivedFromUpper
attr title  "packets received from higher layer, vector(packetBytes)"
vector 130  AODVVANET.vehicle[2].wlan.mac  sentDownPk:vector(packetBytes)  ETV
attr interpolationmode  none
attr source  packetSentToLower
attr title  "packets sent to lower layer, vector(packetBytes)"
vector 170  AODVVANET.vehicle[2].manetrouting.wlan[0].radio  snirVector  ETV
vector 150  AODVVANET.vehicle[2].manetrouting.wlan[0].mac  rcvdPkFromLL:vector(packetBytes)  ETV
attr interpolationmode  none
attr source  packetReceivedFromLower
attr title  "packets received from lower layer, vector(packetBytes)"
vector 142  AODVVANET.vehicle[2].manetrouting.wlan[0].agent  sentRequest:vector  ETV
attr title  "sent requests, vector"
vector 164  AODVVANET.vehicle[2].wlan.radio  snirVector  ETV
vector 132  AODVVANET.vehicle[2].wlan.mac  rcvdPkFromLL:vector(packetBytes)  ETV
attr interpolationmode  none
attr source  packetReceivedFromLower
attr title  "packets received from lower layer, vector(packetBytes)"
vector 129  AODVVANET.vehicle[2].wlan.mac  passedUpPk:vector(packetBytes)  ETV
attr interpolationmode  none
attr source  packetSentToUpper
attr title  "packets passed to higher layer, vector(packetBytes)"
vector 147  AODVVANET.vehicle[2].manetrouting.wlan[0].mac  passedUpPk:vector(packetBytes)  ETV
attr interpolationmode  none
attr source  packetSentToUpper
attr title  "packets passed to higher layer, vector(packetBytes)"
vector 157  AODVVANET.vehicle[2].mobility  speed  ETV
vector 149  AODVVANET.vehicle[2].manetrouting.wlan[0].mac  rcvdPkFromHL:vector(packetBytes)  ETV
attr interpolationmode  none
attr source  packetReceivedFromUpper
attr title  "packets received from higher layer, vector(packetBytes)"
vector 148  AODVVANET.vehicle[2].manetrouting.wlan[0].mac  sentDownPk:vector(packetBytes)  ETV
attr interpolationmode  none
attr source  packetSentToLower
attr title  "packets sent to lower layer, vector(packetBytes)"
vector 158  AODVVANET.vehicle[2].mobility  acceleration  ETV
vector 144  AODVVANET.vehicle[2].manetrouting.wlan[0].agent  dropConfirm:vector  ETV
attr title  "dropped confirms, vector"
vector 178  AODVVANET.vehicle[3].wlan.mgmt  dataQueueLen:vector  ETV
attr interpolationmode  sample-hold
attr title  "data queue length, vector"
vector 196  AODVVANET.vehicle[3].manetrouting.wlan[0].mgmt  dataQueueLen:vector  ETV
attr interpolationmode  sample-hold
attr title  "data queue length, vector"
vector 211  AODVVANET.vehicle[3].wlan.mac  RadioState  ETV
attr enum  "IDLE=0, OFF=4, RECV=1, SLEEP=3, TRANSMIT=2"
attr enumname  RadioState
vector 210  AODVVANET.vehicle[3].wlan.mac  State  ETV
attr enum  "BACKOFF=3, DEFER=1, IDLE=0, RECEIVE=8, WAITACK=4, WAITAIFS=2, WAITCTS=6, WAITMULTICAST=5, WAITSIFS=7"
attr enumname  Ieee80211Mac
vector 213  AODVVANET.vehicle[3].wlan.mac  "throughput AC0"  ETV
vector 217  AODVVANET.vehicle[3].manetrouting.wlan[0].mac  RadioState  ETV
attr enum  "IDLE=0, OFF=4, RECV=1, SLEEP=3, TRANSMIT=2"
attr enumname  RadioState
vector 216  AODVVANET.vehicle[3].manetrouting.wlan[0].mac  State  ETV
attr enum  "BACKOFF=3, DEFER=1, IDLE=0, RECEIVE=8, WAITACK=4, WAITAIFS=2, WAITCTS=6, WAITMULTICAST=5, WAITSIFS=7"
attr enumname  Ieee80211Mac
vector 219  AODVVANET.vehicle[3].manetrouting.wlan[0].mac  "throughput AC0"  ETV
vector 184  AODVVANET.vehicle[3].wlan.radio  bitrate:vector  ETV
attr interpolationmode  sample-hold
attr title  "tx bitrate, vector"
attr unit  bps
vector 186  AODVVANET.vehicle[3].wlan.radio  radioState:vector  ETV
attr interpolationmode  sample-hold
attr title  "radio state (enum), vector"
vector 185  AODVVANET.vehicle[3].wlan.radio  channelNo:vector  ETV
attr interpolationmode  sample-hold
attr title  "channel no, vector"
vector 202  AODVVANET.vehicle[3].manetrouting.wlan[0].radio  bitrate:vector  ETV
attr interpolationmode  sample-hold
attr title  "tx bitrate, vector"
attr unit  bps
vector 204  AODVVANET.vehicle[3].manetrouting.wlan[0].radio  radioState:vector  ETV
attr interpolationmode  sample-hold
attr title  "radio state (enum), vector"
vector 203  AODVVANET.vehicle[3].manetrouting.wlan[0].radio  channelNo:vector  ETV
attr interpolationmode  sample-hold
attr title  "channel no, vector"
vector 206  AODVVANET.vehicle[3].mobility  posx  ETV
vector 207  AODVVANET.vehicle[3].mobility  posy  ETV
vector 171  AODVVANET.vehicle[3].udp  sentPk:vector(packetBytes)  ETV
attr interpolationmode  none
attr source  sentPk
attr title  "packets sent, vector(packetBytes)"
vector 176  AODVVANET.vehicle[3].networkLayer.arp  sentReq:vector  ETV
attr title  "ARP request sent, vector"
vector 182  AODVVANET.vehicle[3].wlan.mac  rcvdPkFromHL:vector(packetBytes)  ETV
attr interpolationmode  none
attr source  packetReceivedFromUpper
attr title  "packets received from higher layer, vector(packetBytes)"
vector 181  AODVVANET.vehicle[3].wlan.mac  sentDownPk:vector(packetBytes)  ETV
attr interpolationmode  none
attr source  packetSentToLower
attr title  "packets sent to lower layer, vector(packetBytes)"
vector 221  AODVVANET.vehicle[3].manetrouting.wlan[0].radio  snirVector  ETV
vector 201  AODVVANET.vehicle[3].manetrouting.wlan[0].mac  rcvdPkFromLL:vector(packetBytes)  ETV
attr interpolationmode  none
attr source  packetReceivedFromLower
attr title  "packets received from lower layer, vector(packetBytes)"
vector 215  AODVVANET.vehicle[3].wlan.radio  snirVector  ETV
vector 183  AODVVANET.vehicle[3].wlan.mac  rcvdPkFromLL:vector(packetBytes)  ETV
attr interpolationmode  none
attr source  packetReceivedFromLower
attr title  "packets received from lower layer, vector(packetBytes)"
vector 180  AODVVANET.vehicle[3].wlan.mac  passedUpPk:vector(packetBytes)  ETV
attr interpolationmode  none
attr source  packetSentToUpper
attr title  "packets passed to higher layer, vector(packetBytes)"
vector 198  AODVVANET.vehicle[3].manetrouting.wlan[0].mac  passedUpPk:vector(packetBytes)  ETV
attr interpolationmode  none
attr source  packetSentToUpper
attr title  "packets passed to higher layer, vector(packetBytes)"
vector 208  AODVVANET.vehicle[3].mobility  speed  ETV
vector 193  AODVVANET.vehicle[3].manetrouting.wlan[0].agent  sentRequest:vector  ETV
attr title  "sent requests, vector"
vector 209  AODVVANET.vehicle[3].mobility  acceleration  ETV
vector 200  AODVVANET.vehicle[3].manetrouting.wlan[0].mac  rcvdPkFromHL:vector(packetBytes)  ETV
attr interpolationmode  none
attr source  packetReceivedFromUpper
attr title  "packets received from higher layer, vector(packetBytes)"
vector 199  AODVVANET.vehicle[3].manetrouting.wlan[0].mac  sentDownPk:vector(packetBytes)  ETV
attr interpolationmode  none
attr source  packetSentToLower
attr title  "packets sent to lower layer, vector(packetBytes)"
vector 195  AODVVANET.vehicle[3].manetrouting.wlan[0].agent  dropConfirm:vector  ETV
attr title  "dropped confirms, vector"
vector 229  AODVVANET.vehicle[4].wlan.mgmt  dataQueueLen:vector  ETV
attr interpolationmode  sample-hold
attr title  "data queue length, vector"
vector 247  AODVVANET.vehicle[4].manetrouting.wlan[0].mgmt  dataQueueLen:vector  ETV
attr interpolationmode  sample-hold
attr title  "data queue length, vector"
vector 262  AODVVANET.vehicle[4].wlan.mac  RadioState  ETV
attr enum  "IDLE=0, OFF=4, RECV=1, SLEEP=3, TRANSMIT=2"
attr enumname  RadioState
vector 261  AODVVANET.vehicle[4].wlan.mac  State  ETV
attr enum  "BACKOFF=3, DEFER=1, IDLE=0, RECEIVE=8, WAITACK=4, WAITAIFS=2, WAITCTS=6, WAITMULTICAST=5, WAITSIFS=7"
attr enumname  Ieee80211Mac
vector 264  AODVVANET.vehicle[4].wlan.mac  "throughput AC0"  ETV
vector 268  AODVVANET.vehicle[4].manetrouting.wlan[0].mac  RadioState  ETV
attr enum  "IDLE=0, OFF=4, RECV=1, SLEEP=3, TRANSMIT=2"
attr enumname  RadioState
vector 267  AODVVANET.vehicle[4].manetrouting.wlan[0].mac  State  ETV
attr enum  "BACKOFF=3, DEFER=1, IDLE=0, RECEIVE=8, WAITACK=4, WAITAIFS=2, WAITCTS=6, WAITMULTICAST=5, WAITSIFS=7"
attr enumname  Ieee80211Mac
vector 270  AODVVANET.vehicle[4].manetrouting.wlan[0].mac  "throughput AC0"  ETV
vector 235  AODVVANET.vehicle[4].wlan.radio  bitrate:vector  ETV
attr interpolationmode  sample-hold
attr title  "tx bitrate, vector"
attr unit  bps
vector 237  AODVVANET.vehicle[4].wlan.radio  radioState:vector  ETV
attr interpolationmode  sample-hold
attr title  "radio state (enum), vector"
vector 236  AODVVANET.vehicle[4].wlan.radio  channelNo:vector  ETV
attr interpolationmode  sample-hold
attr title  "channel no, vector"
vector 253  AODVVANET.vehicle[4].manetrouting.wlan[0].radio  bitrate:vector  ETV
attr interpolationmode  sample-hold
attr title  "tx bitrate, vector"
attr unit  bps
vector 255  AODVVANET.vehicle[4].manetrouting.wlan[0].radio  radioState:vector  ETV
attr interpolationmode  sample-hold
attr title  "radio state (enum), vector"
vector 254  AODVVANET.vehicle[4].manetrouting.wlan[0].radio  channelNo:vector  ETV
attr interpolationmode  sample-hold
attr title  "channel no, vector"
vector 257  AODVVANET.vehicle[4].mobility  posx  ETV
vector 258  AODVVANET.vehicle[4].mobility  posy  ETV
vector 222  AODVVANET.vehicle[4].udp  sentPk:vector(packetBytes)  ETV
attr interpolationmode  none
attr source  sentPk
attr title  "packets sent, vector(packetBytes)"
vector 227  AODVVANET.vehicle[4].networkLayer.arp  sentReq:vector  ETV
attr title  "ARP request sent, vector"
vector 233  AODVVANET.vehicle[4].wlan.mac  rcvdPkFromHL:vector(packetBytes)  ETV
attr interpolationmode  none
attr source  packetReceivedFromUpper
attr title  "packets received from higher layer, vector(packetBytes)"
vector 232  AODVVANET.vehicle[4].wlan.mac  sentDownPk:vector(packetBytes)  ETV
attr interpolationmode  none
attr source  packetSentToLower
attr title  "packets sent to lower layer, vector(packetBytes)"
vector 272  AODVVANET.vehicle[4].manetrouting.wlan[0].radio  snirVector  ETV
vector 252  AODVVANET.vehicle[4].manetrouting.wlan[0].mac  rcvdPkFromLL:vector(packetBytes)  ETV
attr interpolationmode  none
attr source  packetReceivedFromLower
attr title  "packets received from lower layer, vector(packetBytes)"
vector 259  AODVVANET.vehicle[4].mobility  speed  ETV
vector 260  AODVVANET.vehicle[4].mobility  acceleration  ETV
vector 244  AODVVANET.vehicle[4].manetrouting.wlan[0].agent  sentRequest:vector  ETV
attr title  "sent requests, vector"
vector 266  AODVVANET.vehicle[4].wlan.radio  snirVector  ETV
vector 234  AODVVANET.vehicle[4].wlan.mac  rcvdPkFromLL:vector(packetBytes)  ETV
attr interpolationmode  none
attr source  packetReceivedFromLower
attr title  "packets received from lower layer, vector(packetBytes)"
vector 231  AODVVANET.vehicle[4].wlan.mac  passedUpPk:vector(packetBytes)  ETV
attr interpolationmode  none
attr source  packetSentToUpper
attr title  "packets passed to higher layer, vector(packetBytes)"
vector 249  AODVVANET.vehicle[4].manetrouting.wlan[0].mac  passedUpPk:vector(packetBytes)  ETV
attr interpolationmode  none
attr source  packetSentToUpper
attr title  "packets passed to higher layer, vector(packetBytes)"
vector 251  AODVVANET.vehicle[4].manetrouting.wlan[0].mac  rcvdPkFromHL:vector(packetBytes)  ETV
attr interpolationmode  none
attr source  packetReceivedFromUpper
attr title  "packets received from higher layer, vector(packetBytes)"
vector 250  AODVVANET.vehicle[4].manetrouting.wlan[0].mac  sentDownPk:vector(packetBytes)  ETV
attr interpolationmode  none
attr source  packetSentToLower
attr title  "packets sent to lower layer, vector(packetBytes)"
vector 246  AODVVANET.vehicle[4].manetrouting.wlan[0].agent  dropConfirm:vector  ETV
attr title  "dropped confirms, vector"
vector 280  AODVVANET.vehicle[5].wlan.mgmt  dataQueueLen:vector  ETV
attr interpolationmode  sample-hold
attr title  "data queue length, vector"
vector 298  AODVVANET.vehicle[5].manetrouting.wlan[0].mgmt  dataQueueLen:vector  ETV
attr interpolationmode  sample-hold
attr title  "data queue length, vector"
vector 313  AODVVANET.vehicle[5].wlan.mac  RadioState  ETV
attr enum  "IDLE=0, OFF=4, RECV=1, SLEEP=3, TRANSMIT=2"
attr enumname  RadioState
vector 312  AODVVANET.vehicle[5].wlan.mac  State  ETV
attr enum  "BACKOFF=3, DEFER=1, IDLE=0, RECEIVE=8, WAITACK=4, WAITAIFS=2, WAITCTS=6, WAITMULTICAST=5, WAITSIFS=7"
attr enumname  Ieee80211Mac
vector 315  AODVVANET.vehicle[5].wlan.mac  "throughput AC0"  ETV
vector 319  AODVVANET.vehicle[5].manetrouting.wlan[0].mac  RadioState  ETV
attr enum  "IDLE=0, OFF=4, RECV=1, SLEEP=3, TRANSMIT=2"
attr enumname  RadioState
vector 318  AODVVANET.vehicle[5].manetrouting.wlan[0].mac  State  ETV
attr enum  "BACKOFF=3, DEFER=1, IDLE=0, RECEIVE=8, WAITACK=4, WAITAIFS=2, WAITCTS=6, WAITMULTICAST=5, WAITSIFS=7"
attr enumname  Ieee80211Mac
vector 321  AODVVANET.vehicle[5].manetrouting.wlan[0].mac  "throughput AC0"  ETV
vector 286  AODVVANET.vehicle[5].wlan.radio  bitrate:vector  ETV
attr interpolationmode  sample-hold
attr title  "tx bitrate, vector"
attr unit  bps
vector 288  AODVVANET.vehicle[5].wlan.radio  radioState:vector  ETV
attr interpolationmode  sample-hold
attr title  "radio state (enum), vector"
vector 287  AODVVANET.vehicle[5].wlan.radio  channelNo:vector  ETV
attr interpolationmode  sample-hold
attr title  "channel no, vector"
vector 304  AODVVANET.vehicle[5].manetrouting.wlan[0].radio  bitrate:vector  ETV
attr interpolationmode  sample-hold
attr title  "tx bitrate, vector"
attr unit  bps
vector 306  AODVVANET.vehicle[5].manetrouting.wlan[0].radio  radioState:vector  ETV
attr interpolationmode  sample-hold
attr title  "radio state (enum), vector"
vector 305  AODVVANET.vehicle[5].manetrouting.wlan[0].radio  channelNo:vector  ETV
attr interpolationmode  sample-hold
attr title  "channel no, vector"
vector 308  AODVVANET.vehicle[5].mobility  posx  ETV
vector 309  AODVVANET.vehicle[5].mobility  posy  ETV
vector 273  AODVVANET.vehicle[5].udp  sentPk:vector(packetBytes)  ETV
attr interpolationmode  none
attr source  sentPk
attr title  "packets sent, vector(packetBytes)"
vector 278  AODVVANET.vehicle[5].networkLayer.arp  sentReq:vector  ETV
attr title  "ARP request sent, vector"
vector 284  AODVVANET.vehicle[5].wlan.mac  rcvdPkFromHL:vector(packetBytes)  ETV
attr interpolationmode  none
attr source  packetReceivedFromUpper
attr title  "packets received from higher layer, vector(packetBytes)"
vector 283  AODVVANET.vehicle[5].wlan.mac  sentDownPk:vector(packetBytes)  ETV
attr interpolationmode  none
attr source  packetSentToLower
attr title  "packets sent to lower layer, vector(packetBytes)"
2	0	0	0
8	0	0	2000000
9	0	0	0
10	0	0	0
12	0	0	0
12	0	0	0
13	0	0	0
13	0	0	0
18	43	3.1	8
23	45	3.1	1
23	120	4.1	1
23	291	5.1	1
25	34	3.1	0
27	74	3.454737521177	40
27	94	3.704737521177	40
27	113	3.954737521177	40
27	189	4.315908456396	40
27	209	4.354737521177	40
27	245	4.715594456396	40
27	265	4.754737521177	40
27	386	5.115908456396	40
27	414	5.154737521177	40
27	443	5.206627519736	40
27	492	5.515594456396	40
27	520	5.554737521177	40
27	549	5.606627519736	40
27	600	5.915594456396	40
27	628	5.954737521177	40
27	657	6.006627519736	40
27	755	6.315908456396	40
27	783	6.354737521177	40
27	812	6.406627519736	40
27	863	6.715594456396	40
27	891	6.754737521177	40
27	920	6.806627519736	40
27	1042	7.115908456396	40
27	1078	7.154737521177	40
27	1115	7.206627519736	40
27	1159	7.337407100787	40
27	1219	7.515594456396	40
27	1255	7.554737521177	40
27	1291	7.587407100787	40
27	1328	7.606627519736	40
27	1392	7.915594456396	40
27	1428	7.954737521177	40
27	1464	7.987407100787	40
27	1501	8.006627519736	40
27	1653	8.315908456396	40
27	1697	8.354737521177	40
27	1741	8.387407100787	40
27	1786	8.400592013383	40
27	1830	8.406627519736	40
27	1909	8.715594456396	40
27	1953	8.754737521177	40
27	1997	8.787407100787	40
27	2042	8.800592013383	40
27	2086	8.806627519736	40
28	49	3.10005	70
28	139	4.10005	70
28	315	5.10005	70
29	48	3.1	70
29	135	4.1	70
29	310	5.1	70
30	74	3.454737521177	40
30	94	3.704737521177	40
30	113	3.954737521177	40
30	189	4.315908456396	40
30	209	4.354737521177	40
30	245	4.715594456396	40
30	265	4.754737521177	40
30	386	5.115908456396	40
30	414	5.154737521177	40
30	443	5.206627519736	40
30	492	5.515594456396	40
30	520	5.554737521177	40
30	549	5.606627519736	40
30	600	5.915594456396	40
30	628	5.954737521177	40
30	657	6.006627519736	40
30	712	6.100802	70
30	755	6.315908456396	40
30	783	6.354737521177	40
30	812	6.406627519736	40
30	863	6.715594456396	40
30	891	6.754737521177	40
30	920	6.806627519736	40
30	1007	7.100802	70
30	1042	7.115908456396	40
30	1078	7.154737521177	40
30	1115	7.206627519736	40
30	1159	7.337407100787	40
30	1219	7.515594456396	40
30	1255	7.554737521177	40
30	1291	7.587407100787	40
30	1328	7.606627519736	40
30	1392	7.915594456396	40
30	1428	7.954737521177	40
30	1464	7.987407100787	40
30	1501	8.006627519736	40
30	1587	8.100802	70
30	1653	8.315908456396	40
30	1697	8.354737521177	40
30	1741	8.387407100787	40
30	1786	8.400592013383	40
30	1830	8.406627519736	40
30	1909	8.715594456396	40