file 186348 1439933839                                          
version 2
run AODVVANET-Orlando-100-0-20150813-15:23:39-8851
attr configname AODVVANET-Orlando-100
attr datetime 20150813-15:23:39
attr experiment AODVVANET-Orlando-100
attr inifile omnetpp.ini
attr iterationvars ""
attr iterationvars2 $repetition=0
attr measurement ""
attr network AODVVANET
attr processid 8851
attr repetition 0
attr replication #0
attr resultdir results
attr runnumber 0
attr seedset 0
vector 2  AODVVANET.rsu[0].wlan.mgmt  dataQueueLen:vector  ETV
attr interpolationmode sample-hold
attr title "data queue length, vector"
2	27560 8 0 0 0 0 1 0 0 0 0
vector 13  AODVVANET.rsu[0].wlan.mac  RadioState  ETV
attr enum "IDLE=0, OFF=4, RECV=1, SLEEP=3, TRANSMIT=2"
attr enumname RadioState
13	27617 18 0 0 0 0 2 0 0 0 0
vector 12  AODVVANET.rsu[0].wlan.mac  State  ETV
attr enum "BACKOFF=3, DEFER=1, IDLE=0, RECEIVE=8, WAITACK=4, WAITAIFS=2, WAITCTS=6, WAITMULTICAST=5, WAITSIFS=7"
attr enumname Ieee80211Mac
12	27599 18 0 0 0 0 2 0 0 0 0
vector 8  AODVVANET.rsu[0].wlan.radio  bitrate:vector  ETV
attr interpolationmode sample-hold
attr title "tx bitrate, vector"
attr unit bps
8	27568 14 0 0 0 0 1 2000000 2000000 2000000 4000000000000
vector 10  AODVVANET.rsu[0].wlan.radio  radioState:vector  ETV
attr interpolationmode sample-hold
attr title "radio state (enum), vector"
10	27590 9 0 0 0 0 1 0 0 0 0
vector 9  AODVVANET.rsu[0].wlan.radio  channelNo:vector  ETV
attr interpolationmode sample-hold
attr title "channel no, vector"
9	27582 8 0 0 0 0 1 0 0 0 0
vector 25  AODVVANET.vehicle[0].wlan.mgmt  dataQueueLen:vector  ETV
attr interpolationmode sample-hold
attr title "data queue length, vector"
25	27685 12 34 34 3.1 3.1 1 0 0 0 0
vector 43  AODVVANET.vehicle[0].manetrouting.wlan[0].mgmt  dataQueueLen:vector  ETV
attr interpolationmode sample-hold
attr title "data queue length, vector"
43	33282 12 34 34 3.1 3.1 1 0 0 0 0
vector 58  AODVVANET.vehicle[0].wlan.mac  RadioState  ETV
attr enum "IDLE=0, OFF=4, RECV=1, SLEEP=3, TRANSMIT=2"
attr enumname RadioState
58	52136 4822 34 2077 3.1 8.806627519736 206 0 2 110 122
vector 57  AODVVANET.vehicle[0].wlan.mac  State  ETV
attr enum "BACKOFF=3, DEFER=1, IDLE=0, RECEIVE=8, WAITACK=4, WAITAIFS=2, WAITCTS=6, WAITMULTICAST=5, WAITSIFS=7"
attr enumname Ieee80211Mac
57	44556 7580 34 2086 3.1 8.806627519736 330 0 5 112 412
vector 60  AODVVANET.vehicle[0].wlan.mac  "throughput AC0"  ETV
60	56958 520 34 1889 3.1 8.715082456396 22 0 5277.2676550348 9458.0384833549 37108098.998418
vector 64  AODVVANET.vehicle[0].manetrouting.wlan[0].mac  RadioState  ETV
attr enum "IDLE=0, OFF=4, RECV=1, SLEEP=3, TRANSMIT=2"
attr enumname RadioState
64	67539 4750 34 2078 3.1 8.806627519736 202 0 2 130 190
vector 63  AODVVANET.vehicle[0].manetrouting.wlan[0].mac  State  ETV
attr enum "BACKOFF=3, DEFER=1, IDLE=0, RECEIVE=8, WAITACK=4, WAITAIFS=2, WAITCTS=6, WAITMULTICAST=5, WAITSIFS=7"
attr enumname Ieee80211Mac
63	57515 10024 34 2087 3.1 8.806627519736 422 0 5 540 2040
vector 66  AODVVANET.vehicle[0].manetrouting.wlan[0].mac  "throughput AC0"  ETV
66	72289 636 34 1890 3.1 8.715082456396 22 0 3017.0030825898 19912.102743857 36864553.457432
vector 31  AODVVANET.vehicle[0].wlan.radio  bitrate:vector  ETV
attr interpolationmode sample-hold
attr title "tx bitrate, vector"
attr unit bps
31	30090 18 34 34 3.1 3.1 1 2000000 2000000 2000000 4000000000000
vector 33  AODVVANET.vehicle[0].wlan.radio  radioState:vector  ETV
attr interpolationmode sample-hold
attr title "radio state (enum), vector"
33	30120 2411 34 2077 3.1 8.806627519736 103 0 2 55 61
vector 32  AODVVANET.vehicle[0].wlan.radio  channelNo:vector  ETV
attr interpolationmode sample-hold
attr title "channel no, vector"
32	30108 12 34 34 3.1 3.1 1 0 0 0 0
vector 49  AODVVANET.vehicle[0].manetrouting.wlan[0].radio  bitrate:vector  ETV
attr interpolationmode sample-hold
attr title "tx bitrate, vector"
attr unit bps
49	35667 19 34 34 3.1 3.1 1 54000000 54000000 54000000 2.916e+15
vector 51  AODVVANET.vehicle[0].manetrouting.wlan[0].radio  radioState:vector  ETV
attr interpolationmode sample-hold
attr title "radio state (enum), vector"
51	35698 2375 34 2078 3.1 8.806627519736 101 0 2 65 95
vector 50  AODVVANET.vehicle[0].manetrouting.wlan[0].radio  channelNo:vector  ETV
attr interpolationmode sample-hold
attr title "channel no, vector"
50	35686 12 34 34 3.1 3.1 1 0 0 0 0
vector 53  AODVVANET.vehicle[0].mobility  posx  ETV
53	38073 1639 34 2137 3.1 9.1 61 471.7816679648 472.11391858596 28785.54319318 13583730.075585
vector 54  AODVVANET.vehicle[0].mobility  posy  ETV
54	39712 1641 34 2137 3.1 9.1 61 1720.8174643817 1756.9800438945 106428.97403757 185697917.02211
vector 18  AODVVANET.vehicle[0].udp  sentPk:vector(packetBytes)  ETV
attr interpolationmode none
attr source sentPk
attr title "packets sent, vector(packetBytes)"
18	27635 12 43 43 3.1 3.1 1 8 8 8 64
vector 23  AODVVANET.vehicle[0].networkLayer.arp  sentReq:vector  ETV
attr title "ARP request sent, vector"
23	27647 38 45 291 3.1 5.1 3 1 1 3 3
vector 29  AODVVANET.vehicle[0].wlan.mac  rcvdPkFromHL:vector(packetBytes)  ETV
attr interpolationmode none
attr source packetReceivedFromUpper
attr title "packets received from higher layer, vector(packetBytes)"
29	28870 41 48 310 3.1 5.1 3 70 70 210 14700
vector 28  AODVVANET.vehicle[0].wlan.mac  sentDownPk:vector(packetBytes)  ETV
attr interpolationmode none
attr source packetSentToLower
attr title "packets sent to lower layer, vector(packetBytes)"
28	28817 53 49 315 3.10005 5.10005 3 70 70 210 14700
vector 68  AODVVANET.vehicle[0].manetrouting.wlan[0].radio  snirVector  ETV
68	72925 31 54 54 3.100802 3.100802 1 102.95829190052 102.95829190052 102.95829190052 10600.409871073
vector 48  AODVVANET.vehicle[0].manetrouting.wlan[0].mac  rcvdPkFromLL:vector(packetBytes)  ETV
attr interpolationmode none
attr source packetReceivedFromLower
attr title "packets received from lower layer, vector(packetBytes)"
48	34810 857 55 2087 3.100802 8.806627519736 35 40 70 1580 75800
vector 45  AODVVANET.vehicle[0].manetrouting.wlan[0].mac  passedUpPk:vector(packetBytes)  ETV
attr interpolationmode none
attr source packetSentToUpper
attr title "packets passed to higher layer, vector(packetBytes)"
45	33294 760 55 2087 3.100802 8.806627519736 30 40 70 1230 51300
vector 55  AODVVANET.vehicle[0].mobility  speed  ETV
55	41353 1616 59 2137 3.2 9.1 60 0.24961093867011 12.064217283822 373.68977655218 3030.1852248262
vector 56  AODVVANET.vehicle[0].mobility  acceleration  ETV
56	42969 1587 60 2137 3.3 9.1 59 1.3151140186004 2.5938958732877 118.14606345152 243.49726469783
vector 40  AODVVANET.vehicle[0].manetrouting.wlan[0].agent  sentRequest:vector  ETV
attr title "sent requests, vector"
40	32531 387 61 2121 3.354175521177 9.054175521177 16 1 1 16 16
vector 47  AODVVANET.vehicle[0].manetrouting.wlan[0].mac  rcvdPkFromHL:vector(packetBytes)  ETV
attr interpolationmode none
attr source packetReceivedFromUpper
attr title "packets received from higher layer, vector(packetBytes)"
47	34432 378 67 1930 3.454175521177 8.754175521177 15 40 40 600 24000
vector 46  AODVVANET.vehicle[0].manetrouting.wlan[0].mac  sentDownPk:vector(packetBytes)  ETV
attr interpolationmode none
attr source packetSentToLower
attr title "packets sent to lower layer, vector(packetBytes)"
46	34054 378 68 1931 3.454225521177 8.754225521177 15 40 40 600 24000
vector 62  AODVVANET.vehicle[0].wlan.radio  snirVector  ETV
62	57478 37 73 73 3.454737521177 3.454737521177 1 132.95829190052 132.95829190052 132.95829190052 17677.907385104
vector 30  AODVVANET.vehicle[0].wlan.mac  rcvdPkFromLL:vector(packetBytes)  ETV
attr interpolationmode none
attr source packetReceivedFromLower
attr title "packets received from lower layer, vector(packetBytes)"
30	28911 1179 74 2086 3.454737521177 8.806627519736 47 40 70 1970 85100
vector 27  AODVVANET.vehicle[0].wlan.mac  passedUpPk:vector(packetBytes)  ETV
attr interpolationmode none
attr source packetSentToUpper
attr title "packets passed to higher layer, vector(packetBytes)"
27	27697 1120 74 2086 3.454737521177 8.806627519736 44 40 40 1760 70400
vector 42  AODVVANET.vehicle[0].manetrouting.wlan[0].agent  dropConfirm:vector  ETV
attr title "dropped confirms, vector"
42	32918 364 81 2121 3.604175521177 9.054175521177 15 1 1 15 15
vector 76  AODVVANET.vehicle[1].wlan.mgmt  dataQueueLen:vector  ETV
attr interpolationmode sample-hold
attr title "data queue length, vector"
76	73008 13 121 121 4.1 4.1 1 0 0 0 0
vector 94  AODVVANET.vehicle[1].manetrouting.wlan[0].mgmt  dataQueueLen:vector  ETV
attr interpolationmode sample-hold
attr title "data queue length, vector"
94	78150 13 121 121 4.1 4.1 1 0 0 0 0
vector 109  AODVVANET.vehicle[1].wlan.mac  RadioState  ETV
attr enum "IDLE=0, OFF=4, RECV=1, SLEEP=3, TRANSMIT=2"
attr enumname RadioState
109	95745 4706 121 2079 4.1 8.806627519736 192 0 2 104 116
vector 108  AODVVANET.vehicle[1].wlan.mac  State  ETV
attr enum "BACKOFF=3, DEFER=1, IDLE=0, RECEIVE=8, WAITACK=4, WAITAIFS=2, WAITCTS=6, WAITMULTICAST=5, WAITSIFS=7"
attr enumname Ieee80211Mac
108	88331 7414 121 2088 4.1 8.806627519736 308 0 5 114 414
vector 111  AODVVANET.vehicle[1].wlan.mac  "throughput AC0"  ETV
111	100451 452 121 1891 4.1 8.715082456396 18 0 5277.2676550348 10476.981794904 41368067.471054
vector 115  AODVVANET.vehicle[1].manetrouting.wlan[0].mac  RadioState  ETV
attr enum "IDLE=0, OFF=4, RECV=1, SLEEP=3, TRANSMIT=2"
attr enumname RadioState
115	110262 4592 121 2080 4.1 8.806627519736 186 0 2 116 164
vector 114  AODVVANET.vehicle[1].manetrouting.wlan[0].mac  State  ETV
attr enum "BACKOFF=3, DEFER=1, IDLE=0, RECEIVE=8, WAITACK=4, WAITAIFS=2, WAITCTS=6, WAITMULTICAST=5, WAITSIFS=7"
attr enumname Ieee80211Mac
114	100942 9320 121 2089 4.1 8.806627519736 374 0 5 432 1632
vector 117  AODVVANET.vehicle[1].manetrouting.wlan[0].mac  "throughput AC0"  ETV
117	114854 512 121 1886 4.1 8.715032456396 18 0 3017.0030825898 15155.399510911 28768967.662197
vector 82  AODVVANET.vehicle[1].wlan.radio  bitrate:vector  ETV
attr interpolationmode sample-hold
attr title "tx bitrate, vector"
attr unit bps
82	75251 19 121 121 4.1 4.1 1 2000000 2000000 2000000 4000000000000
vector 84  AODVVANET.vehicle[1].wlan.radio  radioState:vector  ETV
attr interpolationmode sample-hold
attr title "radio state (enum), vector"
84	75283 2257 121 2079 4.1 8.806627519736 96 0 2 52 58
vector 83  AODVVANET.vehicle[1].wlan.radio  channelNo:vector  ETV
attr interpolationmode sample-hold
attr title "channel no, vector"
83	75270 13 121 121 4.1 4.1 1 0 0 0 0
vector 100  AODVVANET.vehicle[1].manetrouting.wlan[0].radio  bitrate:vector  ETV
attr interpolationmode sample-hold
attr title "tx bitrate, vector"
attr unit bps
100	80354 21 121 121 4.1 4.1 1 54000000 54000000 54000000 2.916e+15
vector 102  AODVVANET.vehicle[1].manetrouting.wlan[0].radio  radioState:vector  ETV
attr interpolationmode sample-hold
attr title "radio state (enum), vector"
102	80389 2296 121 2080 4.1 8.806627519736 93 0 2 58 82
vector 101  AODVVANET.vehicle[1].manetrouting.wlan[0].radio  channelNo:vector  ETV
attr interpolationmode sample-hold
attr title "channel no, vector"
101	80375 14 121 121 4.1 4.1 1 0 0 0 0
vector 104  AODVVANET.vehicle[1].mobility  posx  ETV
104	82685 1435 121 2137 4.1 9.1 51 839.32117811111 839.57119162558 42813.721285236 35941465.59403
vector 105  AODVVANET.vehicle[1].mobility  posy  ETV
105	84120 1433 121 2137 4.1 9.1 51 1030.06076409 1055.2504738185 53377.840341605 55869552.199065
vector 69  AODVVANET.vehicle[1].udp  sentPk:vector(packetBytes)  ETV
attr interpolationmode none
attr source sentPk
attr title "packets sent, vector(packetBytes)"
69	72956 13 131 131 4.1 4.1 1 8 8 8 64
vector 74  AODVVANET.vehicle[1].networkLayer.arp  sentReq:vector  ETV
attr title "ARP request sent, vector"
74	72969 39 134 674 4.1 6.1 3 1 1 3 3
vector 80  AODVVANET.vehicle[1].wlan.mac  rcvdPkFromHL:vector(packetBytes)  ETV
attr interpolationmode none
attr source packetReceivedFromUpper
attr title "packets received from higher layer, vector(packetBytes)"
80	74122 42 138 682 4.1 6.1 3 70 70 210 14700
vector 79  AODVVANET.vehicle[1].wlan.mac  sentDownPk:vector(packetBytes)  ETV
attr interpolationmode none
attr source packetSentToLower
attr title "packets sent to lower layer, vector(packetBytes)"
79	74068 54 140 684 4.10005 6.10005 3 70 70 210 14700
vector 119  AODVVANET.vehicle[1].manetrouting.wlan[0].radio  snirVector  ETV
119	115366 38 155 155 4.100802 4.100802 1 -2.1976347934079e-10 -2.1976347934079e-10 -2.1976347934079e-10 4.829598685197e-20
vector 99  AODVVANET.vehicle[1].manetrouting.wlan[0].mac  rcvdPkFromLL:vector(packetBytes)  ETV
attr interpolationmode none
attr source packetReceivedFromLower
attr title "packets received from lower layer, vector(packetBytes)"
99	79515 839 160 2089 4.100802 8.806627519736 34 40 70 1510 70900
vector 106  AODVVANET.vehicle[1].mobility  speed  ETV
106	85553 1408 166 2137 4.2 9.1 50 0.25710982198827 9.9555628885251 261.87173547828 1762.2807277641
vector 91  AODVVANET.vehicle[1].manetrouting.wlan[0].agent  sentRequest:vector  ETV
attr title "sent requests, vector"
91	77540 317 167 2116 4.215032456396 9.015032456396 13 1 1 13 13
vector 107  AODVVANET.vehicle[1].mobility  acceleration  ETV
107	86961 1370 176 2137 4.3 9.1 49 1.3265372503782 2.5878362877294 96.984530665368 200.57013373254
vector 98  AODVVANET.vehicle[1].manetrouting.wlan[0].mac  rcvdPkFromHL:vector(packetBytes)  ETV
attr interpolationmode none
attr source packetReceivedFromUpper
attr title "packets received from higher layer, vector(packetBytes)"
98	79210 305 178 1886 4.315032456396 8.715032456396 12 40 40 480 19200
vector 97  AODVVANET.vehicle[1].manetrouting.wlan[0].mac  sentDownPk:vector(packetBytes)  ETV
attr interpolationmode none
attr source packetSentToLower
attr title "packets sent to lower layer, vector(packetBytes)"
97	78905 305 179 1887 4.315396456396 8.715082456396 12 40 40 480 19200
vector 113  AODVVANET.vehicle[1].wlan.radio  snirVector  ETV
113	100903 39 188 188 4.315908456396 4.315908456396 1 132.95829154119 132.95829154119 132.95829154119 17677.907289552
vector 81  AODVVANET.vehicle[1].wlan.mac  rcvdPkFromLL:vector(packetBytes)  ETV
attr interpolationmode none
attr source packetReceivedFromLower
attr title "packets received from lower layer, vector(packetBytes)"
81	74164 1087 191 2088 4.315908456396 8.806627519736 43 40 70 1780 75400
vector 78  AODVVANET.vehicle[1].wlan.mac  passedUpPk:vector(packetBytes)  ETV
attr interpolationmode none
attr source packetSentToUpper
attr title "packets passed to higher layer, vector(packetBytes)"
78	73021 1047 191 2088 4.315908456396 8.806627519736 41 40 40 1640 65600
vector 96  AODVVANET.vehicle[1].manetrouting.wlan[0].mac  passedUpPk:vector(packetBytes)  ETV
attr interpolationmode none
attr source packetSentToUpper
attr title "packets passed to higher layer, vector(packetBytes)"
96	78163 742 211 2089 4.354737521177 8.806627519736 29 40 40 1160 46400
vector 93  AODVVANET.vehicle[1].manetrouting.wlan[0].agent  dropConfirm:vector  ETV
attr title "dropped confirms, vector"
93	77857 293 223 2116 4.615032456396 9.015032456396 12 1 1 12 12
vector 127  AODVVANET.vehicle[2].wlan.mgmt  dataQueueLen:vector  ETV
attr interpolationmode sample-hold
attr title "data queue length, vector"
127	115460 14 294 294 5.1 5.1 1 0 0 0 0
vector 145  AODVVANET.vehicle[2].manetrouting.wlan[0].mgmt  dataQueueLen:vector  ETV
attr interpolationmode sample-hold
attr title "data queue length, vector"
145	120200 14 294 294 5.1 5.1 1 0 0 0 0
vector 160  AODVVANET.vehicle[2].wlan.mac  RadioState  ETV
attr enum "IDLE=0, OFF=4, RECV=1, SLEEP=3, TRANSMIT=2"
attr enumname RadioState
160	135609 4232 294 2081 5.1 8.806627519736 172 0 2 94 106
vector 159  AODVVANET.vehicle[2].wlan.mac  State  ETV
attr enum "BACKOFF=3, DEFER=1, IDLE=0, RECEIVE=8, WAITACK=4, WAITAIFS=2, WAITCTS=6, WAITMULTICAST=5, WAITSIFS=7"
attr enumname Ieee80211Mac
159	128905 6704 294 2090 5.1 8.806627519736 278 0 5 114 414
vector 162  AODVVANET.vehicle[2].wlan.mac  "throughput AC0"  ETV
162	139841 384 294 1892 5.1 8.715082456396 15 0 5277.2676550348 13154.392380004 62458364.589842
vector 166  AODVVANET.vehicle[2].manetrouting.wlan[0].mac  RadioState  ETV
attr enum "IDLE=0, OFF=4, RECV=1, SLEEP=3, TRANSMIT=2"
attr enumname RadioState
166	148472 4118 294 2076 5.1 8.806627519736 166 0 2 102 142
vector 165  AODVVANET.vehicle[2].manetrouting.wlan[0].mac  State  ETV
attr enum "BACKOFF=3, DEFER=1, IDLE=0, RECEIVE=8, WAITACK=4, WAITAIFS=2, WAITCTS=6, WAITMULTICAST=5, WAITSIFS=7"
attr enumname Ieee80211Mac
165	140264 8208 294 2105 5.1 8.806757519736 328 0 5 360 1360
vector 168  AODVVANET.vehicle[2].manetrouting.wlan[0].mac  "throughput AC0"  ETV
168	152590 452 294 1893 5.1 8.715082456396 15 0 2445.9300215542 10974.03435449 16293920.950778
vector 133  AODVVANET.vehicle[2].wlan.radio  bitrate:vector  ETV
attr interpolationmode sample-hold
attr title "tx bitrate, vector"
attr unit bps
133	117565 20 294 294 5.1 5.1 1 2000000 2000000 2000000 4000000000000
vector 135  AODVVANET.vehicle[2].wlan.radio  radioState:vector  ETV
attr interpolationmode sample-hold
attr title "radio state (enum), vector"
135	117599 2116 294 2081 5.1 8.806627519736 86 0 2 47 53
vector 134  AODVVANET.vehicle[2].wlan.radio  channelNo:vector  ETV
attr interpolationmode sample-hold
attr title "channel no, vector"
134	117585 14 294 294 5.1 5.1 1 0 0 0 0
vector 151  AODVVANET.vehicle[2].manetrouting.wlan[0].radio  bitrate:vector  ETV
attr interpolationmode sample-hold
attr title "tx bitrate, vector"
attr unit bps
151	122264 21 294 294 5.1 5.1 1 54000000 54000000 54000000 2.916e+15
vector 153  AODVVANET.vehicle[2].manetrouting.wlan[0].radio  radioState:vector  ETV
attr interpolationmode sample-hold
attr title "radio state (enum), vector"
153	122299 2059 294 2076 5.1 8.806627519736 83 0 2 51 71
vector 152  AODVVANET.vehicle[2].manetrouting.wlan[0].radio  channelNo:vector  ETV
attr interpolationmode sample-hold
attr title "channel no, vector"
152	122285 14 294 294 5.1 5.1 1 0 0 0 0
vector 155  AODVVANET.vehicle[2].mobility  posx  ETV
155	124358 1157 294 2137 5.1 9.1 41 917.85317743727 934.25998452928 38074.750956349 35359249.347085
vector 156  AODVVANET.vehicle[2].mobility  posy  ETV
156	125515 1156 294 2137 5.1 9.1 41 1543.3194286304 1543.3939391301 63277.138067576 97658443.973238
vector 120  AODVVANET.vehicle[2].udp  sentPk:vector(packetBytes)  ETV
attr interpolationmode none
attr source sentPk
attr title "packets sent, vector(packetBytes)"
120	115404 14 305 305 5.1 5.1 1 8 8 8 64
vector 125  AODVVANET.vehicle[2].networkLayer.arp  sentReq:vector  ETV
attr title "ARP request sent, vector"
125	115418 42 309 952 5.1 7.1 3 1 1 3 3
vector 131  AODVVANET.vehicle[2].wlan.mac  rcvdPkFromHL:vector(packetBytes)  ETV
attr interpolationmode none
attr source packetReceivedFromUpper
attr title "packets received from higher layer, vector(packetBytes)"
131	116515 45 314 967 5.1 7.1 3 70 70 210 14700
vector 130  AODVVANET.vehicle[2].wlan.mac  sentDownPk:vector(packetBytes)  ETV
attr interpolationmode none
attr source packetSentToLower
attr title "packets sent to lower layer, vector(packetBytes)"
130	116458 57 317 971 5.10005 7.10005 3 70 70 210 14700
vector 170  AODVVANET.vehicle[2].manetrouting.wlan[0].radio  snirVector  ETV
170	153042 34 346 346 5.100802 5.100802 1 -3.0102999567497 -3.0102999567497 -3.0102999567497 9.0619058296072
vector 150  AODVVANET.vehicle[2].manetrouting.wlan[0].mac  rcvdPkFromLL:vector(packetBytes)  ETV
attr interpolationmode none
attr source packetReceivedFromLower
attr title "packets received from lower layer, vector(packetBytes)"
150	121463 801 359 2047 5.100802 8.800592013383 31 40 70 1360 62800
vector 142  AODVVANET.vehicle[2].manetrouting.wlan[0].agent  sentRequest:vector  ETV
attr title "sent requests, vector"
142	119715 255 366 1881 5.106065519736 8.706065519736 10 1 1 10 10
vector 164  AODVVANET.vehicle[2].wlan.radio  snirVector  ETV
164	140225 39 384 384 5.115908456396 5.115908456396 1 132.95829154119 132.95829154119 132.95829154119 17677.907289552
vector 132  AODVVANET.vehicle[2].wlan.mac  rcvdPkFromLL:vector(packetBytes)  ETV
attr interpolationmode none
attr source packetReceivedFromLower
attr title "packets received from lower layer, vector(packetBytes)"
132	116560 1005 389 2090 5.115908456396 8.806627519736 38 40 70 1550 64100
vector 129  AODVVANET.vehicle[2].wlan.mac  passedUpPk:vector(packetBytes)  ETV
attr interpolationmode none
attr source packetSentToUpper
attr title "packets passed to higher layer, vector(packetBytes)"
129	115474 984 389 2090 5.115908456396 8.806627519736 37 40 40 1480 59200
vector 147  AODVVANET.vehicle[2].manetrouting.wlan[0].mac  passedUpPk:vector(packetBytes)  ETV
attr interpolationmode none
attr source packetSentToUpper
attr title "packets passed to higher layer, vector(packetBytes)"
147	120214 719 390 2047 5.115908456396 8.800592013383 27 40 40 1080 43200
vector 157  AODVVANET.vehicle[2].mobility  speed  ETV
157	126671 1133 426 2137 5.2 9.1 40 0.2567072091829 8.2705601708263 172.33863519956 954.17104905032
vector 149  AODVVANET.vehicle[2].manetrouting.wlan[0].mac  rcvdPkFromHL:vector(packetBytes)  ETV
attr interpolationmode none
attr source packetReceivedFromUpper
attr title "packets received from higher layer, vector(packetBytes)"
149	121198 265 428 2063 5.206065519736 8.806065519736 10 40 40 400 16000
vector 148  AODVVANET.vehicle[2].manetrouting.wlan[0].mac  sentDownPk:vector(packetBytes)  ETV
attr interpolationmode none
attr source packetSentToLower
attr title "packets sent to lower layer, vector(packetBytes)"
148	120933 265 429 2064 5.206115519736 8.806115519736 10 40 40 400 16000
vector 158  AODVVANET.vehicle[2].mobility  acceleration  ETV
158	127804 1101 456 2137 5.3 9.1 39 1.3491548916092 2.5817035415786 80.138529616434 171.23614234835
vector 144  AODVVANET.vehicle[2].manetrouting.wlan[0].agent  dropConfirm:vector  ETV
attr title "dropped confirms, vector"
144	119970 230 472 1881 5.506065519736 8.706065519736 9 1 1 9 9
vector 178  AODVVANET.vehicle[3].wlan.mgmt  dataQueueLen:vector  ETV
attr interpolationmode sample-hold
attr title "data queue length, vector"
178	153134 14 953 953 7.1 7.1 1 0 0 0 0
vector 196  AODVVANET.vehicle[3].manetrouting.wlan[0].mgmt  dataQueueLen:vector  ETV
attr interpolationmode sample-hold
attr title "data queue length, vector"
196	156054 14 953 953 7.1 7.1 1 0 0 0 0
vector 211  AODVVANET.vehicle[3].wlan.mac  RadioState  ETV
attr enum "IDLE=0, OFF=4, RECV=1, SLEEP=3, TRANSMIT=2"
attr enumname RadioState
211	165065 2584 953 2166 7.1 9.10005 104 0 2 58 68
vector 210  AODVVANET.vehicle[3].wlan.mac  State  ETV
attr enum "BACKOFF=3, DEFER=1, IDLE=0, RECEIVE=8, WAITACK=4, WAITAIFS=2, WAITCTS=6, WAITMULTICAST=5, WAITSIFS=7"
attr enumname Ieee80211Mac
210	160899 4166 953 2166 7.1 9.10005 172 0 5 95 359
vector 213  AODVVANET.vehicle[3].wlan.mac  "throughput AC0"  ETV
213	167649 228 953 2153 7.1 9.1 9 0 5277.2676550348 7877.1247249694 34608810.686965
vector 217  AODVVANET.vehicle[3].manetrouting.wlan[0].mac  RadioState  ETV
attr enum "IDLE=0, OFF=4, RECV=1, SLEEP=3, TRANSMIT=2"
attr enumname RadioState
217	172651 2470 953 2083 7.1 8.806627519736 98 0 2 58 78
vector 216  AODVVANET.vehicle[3].manetrouting.wlan[0].mac  State  ETV
attr enum "BACKOFF=3, DEFER=1, IDLE=0, RECEIVE=8, WAITACK=4, WAITAIFS=2, WAITCTS=6, WAITMULTICAST=5, WAITSIFS=7"
attr enumname Ieee80211Mac
216	167917 4734 953 2092 7.1 8.806627519736 186 0 5 180 680
vector 219  AODVVANET.vehicle[3].manetrouting.wlan[0].mac  "throughput AC0"  ETV
219	175121 233 953 1895 7.1 8.715082456396 8 0 1795.3587726132 5126.0205127056 7497334.1415649
vector 184  AODVVANET.vehicle[3].wlan.radio  bitrate:vector  ETV
attr interpolationmode sample-hold
attr title "tx bitrate, vector"
attr unit bps
184	154442 20 953 953 7.1 7.1 1 2000000 2000000 2000000 4000000000000
vector 186  AODVVANET.vehicle[3].wlan.radio  radioState:vector  ETV
attr interpolationmode sample-hold
attr title "radio state (enum), vector"
186	154476 1292 953 2166 7.1 9.10005 52 0 2 30 36
vector 185  AODVVANET.vehicle[3].wlan.radio  channelNo:vector  ETV
attr interpolationmode sample-hold
attr title "channel no, vector"
185	154462 14 953 953 7.1 7.1 1 0 0 0 0
vector 202  AODVVANET.vehicle[3].manetrouting.wlan[0].radio  bitrate:vector  ETV
attr interpolationmode sample-hold
attr title "tx bitrate, vector"
attr unit bps
202	157298 21 953 953 7.1 7.1 1 54000000 54000000 54000000 2.916e+15
vector 204  AODVVANET.vehicle[3].manetrouting.wlan[0].radio  radioState:vector  ETV
attr interpolationmode sample-hold
attr title "radio state (enum), vector"
204	157333 1235 953 2083 7.1 8.806627519736 49 0 2 29 39
vector 203  AODVVANET.vehicle[3].manetrouting.wlan[0].radio  channelNo:vector  ETV
attr interpolationmode sample-hold
attr title "channel no, vector"
203	157319 14 953 953 7.1 7.1 1 0 0 0 0
vector 206  AODVVANET.vehicle[3].mobility  posx  ETV
206	158568 604 953 2137 7.1 9.1 21 1336.6859440114 1340.5225969711 28123.400015652 37663155.766474
vector 207  AODVVANET.vehicle[3].mobility  posy  ETV
207	159172 603 953 2137 7.1 9.1 21 2026.8444420148 2028.3172402894 42583.234985424 86349143.008786
vector 171  AODVVANET.vehicle[3].udp  sentPk:vector(packetBytes)  ETV
attr interpolationmode none
attr source sentPk
attr title "packets sent, vector(packetBytes)"
171	153076 14 963 963 7.1 7.1 1 8 8 8 64
vector 176  AODVVANET.vehicle[3].networkLayer.arp  sentReq:vector  ETV
attr title "ARP request sent, vector"
176	153090 44 966 2134 7.1 9.1 3 1 1 3 3
vector 182  AODVVANET.vehicle[3].wlan.mac  rcvdPkFromHL:vector(packetBytes)  ETV
attr interpolationmode none
attr source packetReceivedFromUpper
attr title "packets received from higher layer, vector(packetBytes)"
182	153801 47 970 2153 7.1 9.1 3 70 70 210 14700
vector 181  AODVVANET.vehicle[3].wlan.mac  sentDownPk:vector(packetBytes)  ETV
attr interpolationmode none
attr source packetSentToLower
attr title "packets sent to lower layer, vector(packetBytes)"
181	153742 59 972 2163 7.10005 9.10005 3 70 70 210 14700
vector 221  AODVVANET.vehicle[3].manetrouting.wlan[0].radio  snirVector  ETV
221	175354 38 999 999 7.100802 7.100802 1 -2.1976347934079e-10 -2.1976347934079e-10 -2.1976347934079e-10 4.829598685197e-20
vector 201  AODVVANET.vehicle[3].manetrouting.wlan[0].mac  rcvdPkFromLL:vector(packetBytes)  ETV
attr interpolationmode none
attr source packetReceivedFromLower
attr title "packets received from lower layer, vector(packetBytes)"
201	156797 501 1012 2092 7.100802 8.806627519736 19 40 70 820 37000
vector 215  AODVVANET.vehicle[3].wlan.radio  snirVector  ETV
215	167877 40 1040 1040 7.115908456396 7.115908456396 1 132.95829154119 132.95829154119 132.95829154119 17677.907289552
vector 183  AODVVANET.vehicle[3].wlan.mac  rcvdPkFromLL:vector(packetBytes)  ETV
attr interpolationmode none
attr source packetReceivedFromLower
attr title "packets received from lower layer, vector(packetBytes)"
183	153848 594 1047 2091 7.115908456396 8.806627519736 22 40 40 880 35200
vector 180  AODVVANET.vehicle[3].wlan.mac  passedUpPk:vector(packetBytes)  ETV
attr interpolationmode none
attr source packetSentToUpper
attr title "packets passed to higher layer, vector(packetBytes)"
180	153148 594 1047 2091 7.115908456396 8.806627519736 22 40 40 880 35200
vector 198  AODVVANET.vehicle[3].manetrouting.wlan[0].mac  passedUpPk:vector(packetBytes)  ETV
attr interpolationmode none
attr source packetSentToUpper
attr title "packets passed to higher layer, vector(packetBytes)"
198	156068 459 1048 2092 7.115908456396 8.806627519736 17 40 40 680 27200
vector 208  AODVVANET.vehicle[3].mobility  speed  ETV
208	159775 579 1094 2137 7.2 9.1 20 0.25613331962842 4.0870368518421 45.235185172583 128.19566468194
vector 193  AODVVANET.vehicle[3].manetrouting.wlan[0].agent  sentRequest:vector  ETV
attr title "sent requests, vector"
193	155768 156 1131 2126 7.236845100787 9.086845100787 6 1 1 6 6
vector 209  AODVVANET.vehicle[3].mobility  acceleration  ETV
209	160354 545 1137 2137 7.3 9.1 19 1.3318220342742 2.535535909664 38.309035322137 79.889071890232
vector 200  AODVVANET.vehicle[3].manetrouting.wlan[0].mac  rcvdPkFromHL:vector(packetBytes)  ETV
attr interpolationmode none
attr source packetReceivedFromUpper
attr title "packets received from higher layer, vector(packetBytes)"
200	156662 135 1140 1974 7.336845100787 8.786845100787 5 40 40 200 8000
vector 199  AODVVANET.vehicle[3].manetrouting.wlan[0].mac  sentDownPk:vector(packetBytes)  ETV
attr interpolationmode none
attr source packetSentToLower
attr title "packets sent to lower layer, vector(packetBytes)"
199	156527 135 1141 1975 7.336895100787 8.786895100787 5 40 40 200 8000
vector 195  AODVVANET.vehicle[3].manetrouting.wlan[0].agent  dropConfirm:vector  ETV
attr title "dropped confirms, vector"
195	155924 130 1189 2126 7.486845100787 9.086845100787 5 1 1 5 5
vector 229  AODVVANET.vehicle[4].wlan.mgmt  dataQueueLen:vector  ETV
attr interpolationmode sample-hold
attr title "data queue length, vector"
229	175437 15 1525 1525 8.1 8.1 1 0 0 0 0
vector 247  AODVVANET.vehicle[4].manetrouting.wlan[0].mgmt  dataQueueLen:vector  ETV
attr interpolationmode sample-hold
attr title "data queue length, vector"
247	176824 15 1525 1525 8.1 8.1 1 0 0 0 0
vector 262  AODVVANET.vehicle[4].wlan.mac  RadioState  ETV
attr enum "IDLE=0, OFF=4, RECV=1, SLEEP=3, TRANSMIT=2"
attr enumname RadioState
262	181157 1188 1525 2084 8.1 8.806627519736 48 0 2 26 30
vector 261  AODVVANET.vehicle[4].wlan.mac  State  ETV
attr enum "BACKOFF=3, DEFER=1, IDLE=0, RECEIVE=8, WAITACK=4, WAITAIFS=2, WAITCTS=6, WAITMULTICAST=5, WAITSIFS=7"
attr enumname Ieee80211Mac
261	179193 1964 1525 2164 8.1 9.10005 82 0 5 47 171
vector 264  AODVVANET.vehicle[4].wlan.mac  "throughput AC0"  ETV
264	182345 96 1525 2154 8.1 9.1 4 0 2599.8570699346 2599.8570699346 6759256.7840889
vector 268  AODVVANET.vehicle[4].manetrouting.wlan[0].mac  RadioState  ETV
attr enum "IDLE=0, OFF=4, RECV=1, SLEEP=3, TRANSMIT=2"
attr enumname RadioState
268	184605 1148 1525 2085 8.1 8.806627519736 46 0 2 26 34