file 2770922 1441035161                                         
version 2
run AODVVANET-Simple-100-0-20150831-21:02:08-4053
attr configname AODVVANET-Simple-100
attr datetime 20150831-21:02:08
attr experiment AODVVANET-Simple-100
attr inifile omnetpp.ini
attr iterationvars ""
attr iterationvars2 $repetition=0
attr measurement ""
attr network AODVVANET
attr processid 4053
attr repetition 0
attr replication #0
attr resultdir results
attr runnumber 0
attr seedset 0

vector 7  AODVVANET.vehicle[0].wlan.mgmt  dataQueueLen:vector  ETV
attr interpolationmode  sample-hold
attr title  "data queue length, vector"
vector 22  AODVVANET.vehicle[0].wlan.mac  RadioState  ETV
attr enum  "IDLE=0, OFF=4, RECV=1, SLEEP=3, TRANSMIT=2"
attr enumname  RadioState
vector 21  AODVVANET.vehicle[0].wlan.mac  State  ETV
attr enum  "BACKOFF=3, DEFER=1, IDLE=0, RECEIVE=8, WAITACK=4, WAITAIFS=2, WAITCTS=6, WAITMULTICAST=5, WAITSIFS=7"
attr enumname  Ieee80211Mac
vector 24  AODVVANET.vehicle[0].wlan.mac  "throughput AC0"  ETV
vector 13  AODVVANET.vehicle[0].wlan.radio  bitrate:vector  ETV
attr interpolationmode  sample-hold
attr title  "tx bitrate, vector"
attr unit  bps
vector 15  AODVVANET.vehicle[0].wlan.radio  radioState:vector  ETV
attr interpolationmode  sample-hold
attr title  "radio state (enum), vector"
vector 14  AODVVANET.vehicle[0].wlan.radio  channelNo:vector  ETV
attr interpolationmode  sample-hold
attr title  "channel no, vector"
vector 17  AODVVANET.vehicle[0].mobility  posx  ETV
vector 18  AODVVANET.vehicle[0].mobility  posy  ETV
vector 19  AODVVANET.vehicle[0].mobility  speed  ETV
vector 20  AODVVANET.vehicle[0].mobility  acceleration  ETV
vector 34  AODVVANET.vehicle[1].wlan.mgmt  dataQueueLen:vector  ETV
attr interpolationmode  sample-hold
attr title  "data queue length, vector"
vector 49  AODVVANET.vehicle[1].wlan.mac  RadioState  ETV
attr enum  "IDLE=0, OFF=4, RECV=1, SLEEP=3, TRANSMIT=2"
attr enumname  RadioState
vector 48  AODVVANET.vehicle[1].wlan.mac  State  ETV
attr enum  "BACKOFF=3, DEFER=1, IDLE=0, RECEIVE=8, WAITACK=4, WAITAIFS=2, WAITCTS=6, WAITMULTICAST=5, WAITSIFS=7"
attr enumname  Ieee80211Mac
vector 51  AODVVANET.vehicle[1].wlan.mac  "throughput AC0"  ETV
vector 40  AODVVANET.vehicle[1].wlan.radio  bitrate:vector  ETV
attr interpolationmode  sample-hold
attr title  "tx bitrate, vector"
attr unit  bps
vector 42  AODVVANET.vehicle[1].wlan.radio  radioState:vector  ETV
attr interpolationmode  sample-hold
attr title  "radio state (enum), vector"
vector 41  AODVVANET.vehicle[1].wlan.radio  channelNo:vector  ETV
attr interpolationmode  sample-hold
attr title  "channel no, vector"
vector 44  AODVVANET.vehicle[1].mobility  posx  ETV
vector 45  AODVVANET.vehicle[1].mobility  posy  ETV
vector 27  AODVVANET.vehicle[1].udp  sentPk:vector(packetBytes)  ETV
attr interpolationmode  none
attr source  sentPk
attr title  "packets sent, vector(packetBytes)"
vector 38  AODVVANET.vehicle[1].wlan.mac  rcvdPkFromHL:vector(packetBytes)  ETV
attr interpolationmode  none
attr source  packetReceivedFromUpper
attr title  "packets received from higher layer, vector(packetBytes)"
vector 37  AODVVANET.vehicle[1].wlan.mac  sentDownPk:vector(packetBytes)  ETV
attr interpolationmode  none
attr source  packetSentToLower
attr title  "packets sent to lower layer, vector(packetBytes)"
vector 26  AODVVANET.vehicle[0].wlan.radio  snirVector  ETV
vector 12  AODVVANET.vehicle[0].wlan.mac  rcvdPkFromLL:vector(packetBytes)  ETV
attr interpolationmode  none
attr source  packetReceivedFromLower
attr title  "packets received from lower layer, vector(packetBytes)"
vector 9  AODVVANET.vehicle[0].wlan.mac  passedUpPk:vector(packetBytes)  ETV
attr interpolationmode  none
attr source  packetSentToUpper
attr title  "packets passed to higher layer, vector(packetBytes)"
vector 5  AODVVANET.vehicle[0].networkLayer.arp  sentReq:vector  ETV
attr title  "ARP request sent, vector"
vector 11  AODVVANET.vehicle[0].wlan.mac  rcvdPkFromHL:vector(packetBytes)  ETV
attr interpolationmode  none
attr source  packetReceivedFromUpper
attr title  "packets received from higher layer, vector(packetBytes)"
vector 10  AODVVANET.vehicle[0].wlan.mac  sentDownPk:vector(packetBytes)  ETV
attr interpolationmode  none
attr source  packetSentToLower
attr title  "packets sent to lower layer, vector(packetBytes)"
vector 53  AODVVANET.vehicle[1].wlan.radio  snirVector  ETV
vector 39  AODVVANET.vehicle[1].wlan.mac  rcvdPkFromLL:vector(packetBytes)  ETV
attr interpolationmode  none
attr source  packetReceivedFromLower
attr title  "packets received from lower layer, vector(packetBytes)"
vector 36  AODVVANET.vehicle[1].wlan.mac  passedUpPk:vector(packetBytes)  ETV
attr interpolationmode  none
attr source  packetSentToUpper
attr title  "packets passed to higher layer, vector(packetBytes)"
vector 33  AODVVANET.vehicle[1].networkLayer.arp  sentReply:vector  ETV
attr title  "ARP replies sent, vector"
vector 52  AODVVANET.vehicle[1].wlan.mac  "Mac delay AC0"  ETV
vector 25  AODVVANET.vehicle[0].wlan.mac  "Mac delay AC0"  ETV
vector 1  AODVVANET.vehicle[0].udp  rcvdPk:vector(packetBytes)  ETV
attr interpolationmode  none
attr source  rcvdPk
attr title  "packets received, vector(packetBytes)"
vector 2  AODVVANET.vehicle[0].udp  passedUpPk:vector(count)  ETV
attr interpolationmode  none
attr title  "packets passed up, vector(count)"
vector 46  AODVVANET.vehicle[1].mobility  speed  ETV
vector 50  AODVVANET.vehicle[1].wlan.mac  "jitter AC0"  ETV
vector 23  AODVVANET.vehicle[0].wlan.mac  "jitter AC0"  ETV
vector 47  AODVVANET.vehicle[1].mobility  acceleration  ETV
vector 0  AODVVANET.vehicle[0].udp  sentPk:vector(packetBytes)  ETV
attr interpolationmode  none
attr source  sentPk
attr title  "packets sent, vector(packetBytes)"
vector 28  AODVVANET.vehicle[1].udp  rcvdPk:vector(packetBytes)  ETV
attr interpolationmode  none
attr source  rcvdPk
attr title  "packets received, vector(packetBytes)"
vector 29  AODVVANET.vehicle[1].udp  passedUpPk:vector(count)  ETV
attr interpolationmode  none
attr title  "packets passed up, vector(count)"
vector 61  AODVVANET.vehicle[2].wlan.mgmt  dataQueueLen:vector  ETV
attr interpolationmode  sample-hold
attr title  "data queue length, vector"
vector 76  AODVVANET.vehicle[2].wlan.mac  RadioState  ETV
attr enum  "IDLE=0, OFF=4, RECV=1, SLEEP=3, TRANSMIT=2"
attr enumname  RadioState
vector 75  AODVVANET.vehicle[2].wlan.mac  State  ETV
attr enum  "BACKOFF=3, DEFER=1, IDLE=0, RECEIVE=8, WAITACK=4, WAITAIFS=2, WAITCTS=6, WAITMULTICAST=5, WAITSIFS=7"
attr enumname  Ieee80211Mac
vector 78  AODVVANET.vehicle[2].wlan.mac  "throughput AC0"  ETV
vector 67  AODVVANET.vehicle[2].wlan.radio  bitrate:vector  ETV
attr interpolationmode  sample-hold
attr title  "tx bitrate, vector"
attr unit  bps
vector 69  AODVVANET.vehicle[2].wlan.radio  radioState:vector  ETV
attr interpolationmode  sample-hold
attr title  "radio state (enum), vector"
vector 68  AODVVANET.vehicle[2].wlan.radio  channelNo:vector  ETV
attr interpolationmode  sample-hold
attr title  "channel no, vector"
vector 71  AODVVANET.vehicle[2].mobility  posx  ETV
vector 72  AODVVANET.vehicle[2].mobility  posy  ETV
vector 80  AODVVANET.vehicle[2].wlan.radio  snirVector  ETV
vector 66  AODVVANET.vehicle[2].wlan.mac  rcvdPkFromLL:vector(packetBytes)  ETV
attr interpolationmode  none
attr source  packetReceivedFromLower
attr title  "packets received from lower layer, vector(packetBytes)"
vector 63  AODVVANET.vehicle[2].wlan.mac  passedUpPk:vector(packetBytes)  ETV
attr interpolationmode  none
attr source  packetSentToUpper
attr title  "packets passed to higher layer, vector(packetBytes)"
vector 59  AODVVANET.vehicle[2].networkLayer.arp  sentReq:vector  ETV
attr title  "ARP request sent, vector"
vector 65  AODVVANET.vehicle[2].wlan.mac  rcvdPkFromHL:vector(packetBytes)  ETV
attr interpolationmode  none
attr source  packetReceivedFromUpper
attr title  "packets received from higher layer, vector(packetBytes)"
vector 64  AODVVANET.vehicle[2].wlan.mac  sentDownPk:vector(packetBytes)  ETV
attr interpolationmode  none
attr source  packetSentToLower
attr title  "packets sent to lower layer, vector(packetBytes)"
vector 79  AODVVANET.vehicle[2].wlan.mac  "Mac delay AC0"  ETV
vector 55  AODVVANET.vehicle[2].udp  rcvdPk:vector(packetBytes)  ETV
attr interpolationmode  none
attr source  rcvdPk
attr title  "packets received, vector(packetBytes)"
vector 56  AODVVANET.vehicle[2].udp  passedUpPk:vector(count)  ETV
attr interpolationmode  none
attr title  "packets passed up, vector(count)"
vector 73  AODVVANET.vehicle[2].mobility  speed  ETV
vector 77  AODVVANET.vehicle[2].wlan.mac  "jitter AC0"  ETV
vector 74  AODVVANET.vehicle[2].mobility  acceleration  ETV
vector 6  AODVVANET.vehicle[0].networkLayer.arp  sentReply:vector  ETV
attr title  "ARP replies sent, vector"
vector 54  AODVVANET.vehicle[2].udp  sentPk:vector(packetBytes)  ETV
attr interpolationmode  none
attr source  sentPk
attr title  "packets sent, vector(packetBytes)"
vector 88  AODVVANET.vehicle[3].wlan.mgmt  dataQueueLen:vector  ETV
attr interpolationmode  sample-hold
attr title  "data queue length, vector"
vector 103  AODVVANET.vehicle[3].wlan.mac  RadioState  ETV
attr enum  "IDLE=0, OFF=4, RECV=1, SLEEP=3, TRANSMIT=2"
attr enumname  RadioState
vector 102  AODVVANET.vehicle[3].wlan.mac  State  ETV
attr enum  "BACKOFF=3, DEFER=1, IDLE=0, RECEIVE=8, WAITACK=4, WAITAIFS=2, WAITCTS=6, WAITMULTICAST=5, WAITSIFS=7"
attr enumname  Ieee80211Mac
vector 105  AODVVANET.vehicle[3].wlan.mac  "throughput AC0"  ETV
vector 94  AODVVANET.vehicle[3].wlan.radio  bitrate:vector  ETV
attr interpolationmode  sample-hold
attr title  "tx bitrate, vector"
attr unit  bps
vector 96  AODVVANET.vehicle[3].wlan.radio  radioState:vector  ETV
attr interpolationmode  sample-hold
attr title  "radio state (enum), vector"
vector 95  AODVVANET.vehicle[3].wlan.radio  channelNo:vector  ETV
attr interpolationmode  sample-hold
attr title  "channel no, vector"
vector 98  AODVVANET.vehicle[3].mobility  posx  ETV
vector 99  AODVVANET.vehicle[3].mobility  posy  ETV
vector 81  AODVVANET.vehicle[3].udp  sentPk:vector(packetBytes)  ETV
attr interpolationmode  none
attr source  sentPk
attr title  "packets sent, vector(packetBytes)"
vector 92  AODVVANET.vehicle[3].wlan.mac  rcvdPkFromHL:vector(packetBytes)  ETV
attr interpolationmode  none
attr source  packetReceivedFromUpper
attr title  "packets received from higher layer, vector(packetBytes)"
vector 91  AODVVANET.vehicle[3].wlan.mac  sentDownPk:vector(packetBytes)  ETV
attr interpolationmode  none
attr source  packetSentToLower
attr title  "packets sent to lower layer, vector(packetBytes)"
vector 107  AODVVANET.vehicle[3].wlan.radio  snirVector  ETV
vector 93  AODVVANET.vehicle[3].wlan.mac  rcvdPkFromLL:vector(packetBytes)  ETV
attr interpolationmode  none
attr source  packetReceivedFromLower
attr title  "packets received from lower layer, vector(packetBytes)"
vector 90  AODVVANET.vehicle[3].wlan.mac  passedUpPk:vector(packetBytes)  ETV
attr interpolationmode  none
attr source  packetSentToUpper
attr title  "packets passed to higher layer, vector(packetBytes)"
vector 87  AODVVANET.vehicle[3].networkLayer.arp  sentReply:vector  ETV
attr title  "ARP replies sent, vector"
vector 106  AODVVANET.vehicle[3].wlan.mac  "Mac delay AC0"  ETV
vector 43  AODVVANET.vehicle[1].wlan.radio  lossRate:vector  ETV
attr interpolationmode  backward-sample-hold
attr title  "packet loss rate, vector"
vector 16  AODVVANET.vehicle[0].wlan.radio  lossRate:vector  ETV
attr interpolationmode  backward-sample-hold
attr title  "packet loss rate, vector"
vector 100  AODVVANET.vehicle[3].mobility  speed  ETV
vector 104  AODVVANET.vehicle[3].wlan.mac  "jitter AC0"  ETV
vector 82  AODVVANET.vehicle[3].udp  rcvdPk:vector(packetBytes)  ETV
attr interpolationmode  none
attr source  rcvdPk
attr title  "packets received, vector(packetBytes)"
vector 83  AODVVANET.vehicle[3].udp  passedUpPk:vector(count)  ETV
attr interpolationmode  none
attr title  "packets passed up, vector(count)"
vector 101  AODVVANET.vehicle[3].mobility  acceleration  ETV
vector 70  AODVVANET.vehicle[2].wlan.radio  lossRate:vector  ETV
attr interpolationmode  backward-sample-hold
attr title  "packet loss rate, vector"
vector 115  AODVVANET.vehicle[4].wlan.mgmt  dataQueueLen:vector  ETV
attr interpolationmode  sample-hold
attr title  "data queue length, vector"
vector 130  AODVVANET.vehicle[4].wlan.mac  RadioState  ETV
attr enum  "IDLE=0, OFF=4, RECV=1, SLEEP=3, TRANSMIT=2"
attr enumname  RadioState
vector 129  AODVVANET.vehicle[4].wlan.mac  State  ETV
attr enum  "BACKOFF=3, DEFER=1, IDLE=0, RECEIVE=8, WAITACK=4, WAITAIFS=2, WAITCTS=6, WAITMULTICAST=5, WAITSIFS=7"
attr enumname  Ieee80211Mac
vector 132  AODVVANET.vehicle[4].wlan.mac  "throughput AC0"  ETV
vector 121  AODVVANET.vehicle[4].wlan.radio  bitrate:vector  ETV
attr interpolationmode  sample-hold
attr title  "tx bitrate, vector"
attr unit  bps
vector 123  AODVVANET.vehicle[4].wlan.radio  radioState:vector  ETV
attr interpolationmode  sample-hold
attr title  "radio state (enum), vector"
vector 122  AODVVANET.vehicle[4].wlan.radio  channelNo:vector  ETV
attr interpolationmode  sample-hold
attr title  "channel no, vector"
vector 125  AODVVANET.vehicle[4].mobility  posx  ETV
vector 126  AODVVANET.vehicle[4].mobility  posy  ETV
vector 134  AODVVANET.vehicle[4].wlan.radio  snirVector  ETV
vector 120  AODVVANET.vehicle[4].wlan.mac  rcvdPkFromLL:vector(packetBytes)  ETV
attr interpolationmode  none
attr source  packetReceivedFromLower
attr title  "packets received from lower layer, vector(packetBytes)"
vector 127  AODVVANET.vehicle[4].mobility  speed  ETV
vector 128  AODVVANET.vehicle[4].mobility  acceleration  ETV
vector 108  AODVVANET.vehicle[4].udp  sentPk:vector(packetBytes)  ETV
attr interpolationmode  none
attr source  sentPk
attr title  "packets sent, vector(packetBytes)"
vector 119  AODVVANET.vehicle[4].wlan.mac  rcvdPkFromHL:vector(packetBytes)  ETV
attr interpolationmode  none
attr source  packetReceivedFromUpper
attr title  "packets received from higher layer, vector(packetBytes)"
vector 118  AODVVANET.vehicle[4].wlan.mac  sentDownPk:vector(packetBytes)  ETV
attr interpolationmode  none
attr source  packetSentToLower
attr title  "packets sent to lower layer, vector(packetBytes)"
vector 86  AODVVANET.vehicle[3].networkLayer.arp  sentReq:vector  ETV
attr title  "ARP request sent, vector"
vector 117  AODVVANET.vehicle[4].wlan.mac  passedUpPk:vector(packetBytes)  ETV
attr interpolationmode  none
attr source  packetSentToUpper
attr title  "packets passed to higher layer, vector(packetBytes)"
vector 114  AODVVANET.vehicle[4].networkLayer.arp  sentReply:vector  ETV
attr title  "ARP replies sent, vector"
vector 133  AODVVANET.vehicle[4].wlan.mac  "Mac delay AC0"  ETV
vector 131  AODVVANET.vehicle[4].wlan.mac  "jitter AC0"  ETV
vector 113  AODVVANET.vehicle[4].networkLayer.arp  sentReq:vector  ETV
attr title  "ARP request sent, vector"
vector 60  AODVVANET.vehicle[2].networkLayer.arp  sentReply:vector  ETV
attr title  "ARP replies sent, vector"
vector 97  AODVVANET.vehicle[3].wlan.radio  lossRate:vector  ETV
attr interpolationmode  backward-sample-hold
attr title  "packet loss rate, vector"
vector 109  AODVVANET.vehicle[4].udp  rcvdPk:vector(packetBytes)  ETV
attr interpolationmode  none
attr source  rcvdPk
attr title  "packets received, vector(packetBytes)"
vector 110  AODVVANET.vehicle[4].udp  passedUpPk:vector(count)  ETV
attr interpolationmode  none
attr title  "packets passed up, vector(count)"
vector 142  AODVVANET.vehicle[5].wlan.mgmt  dataQueueLen:vector  ETV
attr interpolationmode  sample-hold
attr title  "data queue length, vector"
vector 157  AODVVANET.vehicle[5].wlan.mac  RadioState  ETV
attr enum  "IDLE=0, OFF=4, RECV=1, SLEEP=3, TRANSMIT=2"
attr enumname  RadioState
vector 156  AODVVANET.vehicle[5].wlan.mac  State  ETV
attr enum  "BACKOFF=3, DEFER=1, IDLE=0, RECEIVE=8, WAITACK=4, WAITAIFS=2, WAITCTS=6, WAITMULTICAST=5, WAITSIFS=7"
attr enumname  Ieee80211Mac
vector 159  AODVVANET.vehicle[5].wlan.mac  "throughput AC0"  ETV
vector 148  AODVVANET.vehicle[5].wlan.radio  bitrate:vector  ETV
attr interpolationmode  sample-hold
attr title  "tx bitrate, vector"
attr unit  bps
vector 150  AODVVANET.vehicle[5].wlan.radio  radioState:vector  ETV
attr interpolationmode  sample-hold
attr title  "radio state (enum), vector"
vector 149  AODVVANET.vehicle[5].wlan.radio  channelNo:vector  ETV
attr interpolationmode  sample-hold
attr title  "channel no, vector"
vector 152  AODVVANET.vehicle[5].mobility  posx  ETV
vector 153  AODVVANET.vehicle[5].mobility  posy  ETV
vector 135  AODVVANET.vehicle[5].udp  sentPk:vector(packetBytes)  ETV
attr interpolationmode  none
attr source  sentPk
attr title  "packets sent, vector(packetBytes)"
vector 146  AODVVANET.vehicle[5].wlan.mac  rcvdPkFromHL:vector(packetBytes)  ETV
attr interpolationmode  none
attr source  packetReceivedFromUpper
attr title  "packets received from higher layer, vector(packetBytes)"
vector 145  AODVVANET.vehicle[5].wlan.mac  sentDownPk:vector(packetBytes)  ETV
attr interpolationmode  none
attr source  packetSentToLower
attr title  "packets sent to lower layer, vector(packetBytes)"
vector 32  AODVVANET.vehicle[1].networkLayer.arp  sentReq:vector  ETV
attr title  "ARP request sent, vector"
vector 161  AODVVANET.vehicle[5].wlan.radio  snirVector  ETV
vector 147  AODVVANET.vehicle[5].wlan.mac  rcvdPkFromLL:vector(packetBytes)  ETV
attr interpolationmode  none
attr source  packetReceivedFromLower
attr title  "packets received from lower layer, vector(packetBytes)"
vector 144  AODVVANET.vehicle[5].wlan.mac  passedUpPk:vector(packetBytes)  ETV
attr interpolationmode  none
attr source  packetSentToUpper
attr title  "packets passed to higher layer, vector(packetBytes)"
vector 141  AODVVANET.vehicle[5].networkLayer.arp  sentReply:vector  ETV
attr title  "ARP replies sent, vector"
vector 160  AODVVANET.vehicle[5].wlan.mac  "Mac delay AC0"  ETV
vector 124  AODVVANET.vehicle[4].wlan.radio  lossRate:vector  ETV
attr interpolationmode  backward-sample-hold
attr title  "packet loss rate, vector"
vector 154  AODVVANET.vehicle[5].mobility  speed  ETV
vector 158  AODVVANET.vehicle[5].wlan.mac  "jitter AC0"  ETV
vector 155  AODVVANET.vehicle[5].mobility  acceleration  ETV
vector 140  AODVVANET.vehicle[5].networkLayer.arp  sentReq:vector  ETV
attr title  "ARP request sent, vector"
vector 169  AODVVANET.vehicle[6].wlan.mgmt  dataQueueLen:vector  ETV
attr interpolationmode  sample-hold
attr title  "data queue length, vector"
vector 184  AODVVANET.vehicle[6].wlan.mac  RadioState  ETV
attr enum  "IDLE=0, OFF=4, RECV=1, SLEEP=3, TRANSMIT=2"
attr enumname  RadioState
vector 183  AODVVANET.vehicle[6].wlan.mac  State  ETV
attr enum  "BACKOFF=3, DEFER=1, IDLE=0, RECEIVE=8, WAITACK=4, WAITAIFS=2, WAITCTS=6, WAITMULTICAST=5, WAITSIFS=7"
attr enumname  Ieee80211Mac
vector 186  AODVVANET.vehicle[6].wlan.mac  "throughput AC0"  ETV
vector 175  AODVVANET.vehicle[6].wlan.radio  bitrate:vector  ETV
attr interpolationmode  sample-hold
attr title  "tx bitrate, vector"
attr unit  bps
vector 177  AODVVANET.vehicle[6].wlan.radio  radioState:vector  ETV
attr interpolationmode  sample-hold
attr title  "radio state (enum), vector"
vector 176  AODVVANET.vehicle[6].wlan.radio  channelNo:vector  ETV
attr interpolationmode  sample-hold
attr title  "channel no, vector"
vector 179  AODVVANET.vehicle[6].mobility  posx  ETV
vector 180  AODVVANET.vehicle[6].mobility  posy  ETV
vector 188  AODVVANET.vehicle[6].wlan.radio  snirVector  ETV
vector 174  AODVVANET.vehicle[6].wlan.mac  rcvdPkFromLL:vector(packetBytes)  ETV
attr interpolationmode  none
attr source  packetReceivedFromLower
attr title  "packets received from lower layer, vector(packetBytes)"
vector 171  AODVVANET.vehicle[6].wlan.mac  passedUpPk:vector(packetBytes)  ETV
attr interpolationmode  none
attr source  packetSentToUpper
attr title  "packets passed to higher layer, vector(packetBytes)"
vector 173  AODVVANET.vehicle[6].wlan.mac  rcvdPkFromHL:vector(packetBytes)  ETV
attr interpolationmode  none
attr source  packetReceivedFromUpper
attr title  "packets received from higher layer, vector(packetBytes)"
vector 172  AODVVANET.vehicle[6].wlan.mac  sentDownPk:vector(packetBytes)  ETV
attr interpolationmode  none
attr source  packetSentToLower
attr title  "packets sent to lower layer, vector(packetBytes)"
vector 136  AODVVANET.vehicle[5].udp  rcvdPk:vector(packetBytes)  ETV
attr interpolationmode  none
attr source  rcvdPk
attr title  "packets received, vector(packetBytes)"
vector 137  AODVVANET.vehicle[5].udp  passedUpPk:vector(count)  ETV
attr interpolationmode  none
attr title  "packets passed up, vector(count)"
vector 151  AODVVANET.vehicle[5].wlan.radio  lossRate:vector  ETV
attr interpolationmode  backward-sample-hold
attr title  "packet loss rate, vector"
vector 181  AODVVANET.vehicle[6].mobility  speed  ETV
vector 182  AODVVANET.vehicle[6].mobility  acceleration  ETV
vector 167  AODVVANET.vehicle[6].networkLayer.arp  sentReq:vector  ETV
attr title  "ARP request sent, vector"
vector 187  AODVVANET.vehicle[6].wlan.mac  "Mac delay AC0"  ETV
vector 178  AODVVANET.vehicle[6].wlan.radio  lossRate:vector  ETV
attr interpolationmode  backward-sample-hold
attr title  "packet loss rate, vector"
vector 163  AODVVANET.vehicle[6].udp  rcvdPk:vector(packetBytes)  ETV
attr interpolationmode  none
attr source  rcvdPk
attr title  "packets received, vector(packetBytes)"
vector 164  AODVVANET.vehicle[6].udp  passedUpPk:vector(count)  ETV
attr interpolationmode  none
attr title  "packets passed up, vector(count)"
vector 185  AODVVANET.vehicle[6].wlan.mac  "jitter AC0"  ETV
vector 196  AODVVANET.vehicle[7].wlan.mgmt  dataQueueLen:vector  ETV
attr interpolationmode  sample-hold
attr title  "data queue length, vector"
vector 211  AODVVANET.vehicle[7].wlan.mac  RadioState  ETV
attr enum  "IDLE=0, OFF=4, RECV=1, SLEEP=3, TRANSMIT=2"
attr enumname  RadioState
vector 210  AODVVANET.vehicle[7].wlan.mac  State  ETV
attr enum  "BACKOFF=3, DEFER=1, IDLE=0, RECEIVE=8, WAITACK=4, WAITAIFS=2, WAITCTS=6, WAITMULTICAST=5, WAITSIFS=7"
attr enumname  Ieee80211Mac
vector 213  AODVVANET.vehicle[7].wlan.mac  "throughput AC0"  ETV
vector 202  AODVVANET.vehicle[7].wlan.radio  bitrate:vector  ETV
attr interpolationmode  sample-hold
attr title  "tx bitrate, vector"
attr unit  bps
vector 204  AODVVANET.vehicle[7].wlan.radio  radioState:vector  ETV
attr interpolationmode  sample-hold
attr title  "radio state (enum), vector"
vector 203  AODVVANET.vehicle[7].wlan.radio  channelNo:vector  ETV
attr interpolationmode  sample-hold
attr title  "channel no, vector"
vector 206  AODVVANET.vehicle[7].mobility  posx  ETV
vector 207  AODVVANET.vehicle[7].mobility  posy  ETV
vector 208  AODVVANET.vehicle[7].mobility  speed  ETV
vector 162  AODVVANET.vehicle[6].udp  sentPk:vector(packetBytes)  ETV
attr interpolationmode  none
attr source  sentPk
attr title  "packets sent, vector(packetBytes)"
vector 215  AODVVANET.vehicle[7].wlan.radio  snirVector  ETV
vector 201  AODVVANET.vehicle[7].wlan.mac  rcvdPkFromLL:vector(packetBytes)  ETV
attr interpolationmode  none
attr source  packetReceivedFromLower
attr title  "packets received from lower layer, vector(packetBytes)"
vector 209  AODVVANET.vehicle[7].mobility  acceleration  ETV
vector 189  AODVVANET.vehicle[7].udp  sentPk:vector(packetBytes)  ETV
attr interpolationmode  none
attr source  sentPk
attr title  "packets sent, vector(packetBytes)"
vector 200  AODVVANET.vehicle[7].wlan.mac  rcvdPkFromHL:vector(packetBytes)  ETV
attr interpolationmode  none
attr source  packetReceivedFromUpper
attr title  "packets received from higher layer, vector(packetBytes)"
vector 199  AODVVANET.vehicle[7].wlan.mac  sentDownPk:vector(packetBytes)  ETV
attr interpolationmode  none
attr source  packetSentToLower
attr title  "packets sent to lower layer, vector(packetBytes)"
vector 198  AODVVANET.vehicle[7].wlan.mac  passedUpPk:vector(packetBytes)  ETV
attr interpolationmode  none
attr source  packetSentToUpper
attr title  "packets passed to higher layer, vector(packetBytes)"
vector 195  AODVVANET.vehicle[7].networkLayer.arp  sentReply:vector  ETV
attr title  "ARP replies sent, vector"
vector 214  AODVVANET.vehicle[7].wlan.mac  "Mac delay AC0"  ETV
vector 212  AODVVANET.vehicle[7].wlan.mac  "jitter AC0"  ETV
vector 223  AODVVANET.vehicle[8].wlan.mgmt  dataQueueLen:vector  ETV
attr interpolationmode  sample-hold
attr title  "data queue length, vector"
vector 238  AODVVANET.vehicle[8].wlan.mac  RadioState  ETV
attr enum  "IDLE=0, OFF=4, RECV=1, SLEEP=3, TRANSMIT=2"
attr enumname  RadioState
vector 237  AODVVANET.vehicle[8].wlan.mac  State  ETV
attr enum  "BACKOFF=3, DEFER=1, IDLE=0, RECEIVE=8, WAITACK=4, WAITAIFS=2, WAITCTS=6, WAITMULTICAST=5, WAITSIFS=7"
attr enumname  Ieee80211Mac
vector 240  AODVVANET.vehicle[8].wlan.mac  "throughput AC0"  ETV
vector 229  AODVVANET.vehicle[8].wlan.radio  bitrate:vector  ETV
attr interpolationmode  sample-hold
attr title  "tx bitrate, vector"
attr unit  bps
vector 231  AODVVANET.vehicle[8].wlan.radio  radioState:vector  ETV
attr interpolationmode  sample-hold
attr title  "radio state (enum), vector"
vector 230  AODVVANET.vehicle[8].wlan.radio  channelNo:vector  ETV
attr interpolationmode  sample-hold
attr title  "channel no, vector"
vector 233  AODVVANET.vehicle[8].mobility  posx  ETV
vector 234  AODVVANET.vehicle[8].mobility  posy  ETV
vector 242  AODVVANET.vehicle[8].wlan.radio  snirVector  ETV
vector 228  AODVVANET.vehicle[8].wlan.mac  rcvdPkFromLL:vector(packetBytes)  ETV
attr interpolationmode  none
attr source  packetReceivedFromLower
attr title  "packets received from lower layer, vector(packetBytes)"
vector 235  AODVVANET.vehicle[8].mobility  speed  ETV
vector 194  AODVVANET.vehicle[7].networkLayer.arp  sentReq:vector  ETV
attr title  "ARP request sent, vector"
vector 225  AODVVANET.vehicle[8].wlan.mac  passedUpPk:vector(packetBytes)  ETV
attr interpolationmode  none
attr source  packetSentToUpper
attr title  "packets passed to higher layer, vector(packetBytes)"
vector 168  AODVVANET.vehicle[6].networkLayer.arp  sentReply:vector  ETV
attr title  "ARP replies sent, vector"
vector 227  AODVVANET.vehicle[8].wlan.mac  rcvdPkFromHL:vector(packetBytes)  ETV
attr interpolationmode  none
attr source  packetReceivedFromUpper
attr title  "packets received from higher layer, vector(packetBytes)"
vector 226  AODVVANET.vehicle[8].wlan.mac  sentDownPk:vector(packetBytes)  ETV
attr interpolationmode  none
attr source  packetSentToLower
attr title  "packets sent to lower layer, vector(packetBytes)"
vector 236  AODVVANET.vehicle[8].mobility  acceleration  ETV
vector 205  AODVVANET.vehicle[7].wlan.radio  lossRate:vector  ETV
attr interpolationmode  backward-sample-hold
attr title  "packet loss rate, vector"
vector 216  AODVVANET.vehicle[8].udp  sentPk:vector(packetBytes)  ETV
attr interpolationmode  none
attr source  sentPk
attr title  "packets sent, vector(packetBytes)"
vector 232  AODVVANET.vehicle[8].wlan.radio  lossRate:vector  ETV
attr interpolationmode  backward-sample-hold
attr title  "packet loss rate, vector"
vector 222  AODVVANET.vehicle[8].networkLayer.arp  sentReply:vector  ETV
attr title  "ARP replies sent, vector"
vector 241  AODVVANET.vehicle[8].wlan.mac  "Mac delay AC0"  ETV
vector 239  AODVVANET.vehicle[8].wlan.mac  "jitter AC0"  ETV
vector 250  AODVVANET.vehicle[9].wlan.mgmt  dataQueueLen:vector  ETV
attr interpolationmode  sample-hold
attr title  "data queue length, vector"
vector 265  AODVVANET.vehicle[9].wlan.mac  RadioState  ETV
attr enum  "IDLE=0, OFF=4, RECV=1, SLEEP=3, TRANSMIT=2"
attr enumname  RadioState
vector 264  AODVVANET.vehicle[9].wlan.mac  State  ETV
attr enum  "BACKOFF=3, DEFER=1, IDLE=0, RECEIVE=8, WAITACK=4, WAITAIFS=2, WAITCTS=6, WAITMULTICAST=5, WAITSIFS=7"
attr enumname  Ieee80211Mac
vector 267  AODVVANET.vehicle[9].wlan.mac  "throughput AC0"  ETV
vector 256  AODVVANET.vehicle[9].wlan.radio  bitrate:vector  ETV
attr interpolationmode  sample-hold
attr title  "tx bitrate, vector"
attr unit  bps
vector 258  AODVVANET.vehicle[9].wlan.radio  radioState:vector  ETV
attr interpolationmode  sample-hold
attr title  "radio state (enum), vector"
vector 257  AODVVANET.vehicle[9].wlan.radio  channelNo:vector  ETV
attr interpolationmode  sample-hold
attr title  "channel no, vector"
vector 260  AODVVANET.vehicle[9].mobility  posx  ETV
vector 261  AODVVANET.vehicle[9].mobility  posy  ETV
vector 262  AODVVANET.vehicle[9].mobility  speed  ETV
vector 243  AODVVANET.vehicle[9].udp  sentPk:vector(packetBytes)  ETV
attr interpolationmode  none
attr source  sentPk
attr title  "packets sent, vector(packetBytes)"
vector 254  AODVVANET.vehicle[9].wlan.mac  rcvdPkFromHL:vector(packetBytes)  ETV
attr interpolationmode  none
attr source  packetReceivedFromUpper
attr title  "packets received from higher layer, vector(packetBytes)"
vector 253  AODVVANET.vehicle[9].wlan.mac  sentDownPk:vector(packetBytes)  ETV
attr interpolationmode  none
attr source  packetSentToLower
attr title  "packets sent to lower layer, vector(packetBytes)"
vector 269  AODVVANET.vehicle[9].wlan.radio  snirVector  ETV
vector 255  AODVVANET.vehicle[9].wlan.mac  rcvdPkFromLL:vector(packetBytes)  ETV
attr interpolationmode  none
attr source  packetReceivedFromLower
attr title  "packets received from lower layer, vector(packetBytes)"
vector 252  AODVVANET.vehicle[9].wlan.mac  passedUpPk:vector(packetBytes)  ETV
attr interpolationmode  none
attr source  packetSentToUpper
attr title  "packets passed to higher layer, vector(packetBytes)"
vector 249  AODVVANET.vehicle[9].networkLayer.arp  sentReply:vector  ETV
attr title  "ARP replies sent, vector"
vector 268  AODVVANET.vehicle[9].wlan.mac  "Mac delay AC0"  ETV
vector 190  AODVVANET.vehicle[7].udp  rcvdPk:vector(packetBytes)  ETV
attr interpolationmode  none
attr source  rcvdPk
attr title  "packets received, vector(packetBytes)"
vector 191  AODVVANET.vehicle[7].udp  passedUpPk:vector(count)  ETV
attr interpolationmode  none