version 2
run AODVVANET-Simple-100-0-20150821-23:10:33-30931
attr configname AODVVANET-Simple-100
attr datetime 20150821-23:10:33
attr experiment AODVVANET-Simple-100
attr inifile omnetpp.ini
attr iterationvars ""
attr iterationvars2 $repetition=0
attr measurement ""
attr network AODVVANET
attr processid 30931
attr repetition 0
attr replication #0
attr resultdir results
attr runnumber 0
attr seedset 0

vector 7  AODVVANET.vehicle[0].wlan.mgmt  dataQueueLen:vector  ETV
attr interpolationmode  sample-hold
attr title  "data queue length, vector"
vector 22  AODVVANET.vehicle[0].wlan.mac  RadioState  ETV
attr enum  "IDLE=0, OFF=4, RECV=1, SLEEP=3, TRANSMIT=2"
attr enumname  RadioState
vector 21  AODVVANET.vehicle[0].wlan.mac  State  ETV
attr enum  "BACKOFF=3, DEFER=1, IDLE=0, RECEIVE=8, WAITACK=4, WAITAIFS=2, WAITCTS=6, WAITMULTICAST=5, WAITSIFS=7"
attr enumname  Ieee80211Mac
vector 24  AODVVANET.vehicle[0].wlan.mac  "throughput AC0"  ETV
vector 13  AODVVANET.vehicle[0].wlan.radio  bitrate:vector  ETV
attr interpolationmode  sample-hold
attr title  "tx bitrate, vector"
attr unit  bps
vector 15  AODVVANET.vehicle[0].wlan.radio  radioState:vector  ETV
attr interpolationmode  sample-hold
attr title  "radio state (enum), vector"
vector 14  AODVVANET.vehicle[0].wlan.radio  channelNo:vector  ETV
attr interpolationmode  sample-hold
attr title  "channel no, vector"
vector 17  AODVVANET.vehicle[0].mobility  posx  ETV
vector 18  AODVVANET.vehicle[0].mobility  posy  ETV
vector 0  AODVVANET.vehicle[0].udp  sentPk:vector(packetBytes)  ETV
attr interpolationmode  none
attr source  sentPk
attr title  "packets sent, vector(packetBytes)"
vector 11  AODVVANET.vehicle[0].wlan.mac  rcvdPkFromHL:vector(packetBytes)  ETV
attr interpolationmode  none
attr source  packetReceivedFromUpper
attr title  "packets received from higher layer, vector(packetBytes)"
vector 10  AODVVANET.vehicle[0].wlan.mac  sentDownPk:vector(packetBytes)  ETV
attr interpolationmode  none
attr source  packetSentToLower
attr title  "packets sent to lower layer, vector(packetBytes)"
vector 19  AODVVANET.vehicle[0].mobility  speed  ETV
vector 20  AODVVANET.vehicle[0].mobility  acceleration  ETV
vector 34  AODVVANET.vehicle[1].wlan.mgmt  dataQueueLen:vector  ETV
attr interpolationmode  sample-hold
attr title  "data queue length, vector"
vector 49  AODVVANET.vehicle[1].wlan.mac  RadioState  ETV
attr enum  "IDLE=0, OFF=4, RECV=1, SLEEP=3, TRANSMIT=2"
attr enumname  RadioState
vector 48  AODVVANET.vehicle[1].wlan.mac  State  ETV
attr enum  "BACKOFF=3, DEFER=1, IDLE=0, RECEIVE=8, WAITACK=4, WAITAIFS=2, WAITCTS=6, WAITMULTICAST=5, WAITSIFS=7"
attr enumname  Ieee80211Mac
vector 51  AODVVANET.vehicle[1].wlan.mac  "throughput AC0"  ETV
vector 40  AODVVANET.vehicle[1].wlan.radio  bitrate:vector  ETV
attr interpolationmode  sample-hold
attr title  "tx bitrate, vector"
attr unit  bps
vector 42  AODVVANET.vehicle[1].wlan.radio  radioState:vector  ETV
attr interpolationmode  sample-hold
attr title  "radio state (enum), vector"
vector 41  AODVVANET.vehicle[1].wlan.radio  channelNo:vector  ETV
attr interpolationmode  sample-hold
attr title  "channel no, vector"
vector 44  AODVVANET.vehicle[1].mobility  posx  ETV
vector 45  AODVVANET.vehicle[1].mobility  posy  ETV
vector 27  AODVVANET.vehicle[1].udp  sentPk:vector(packetBytes)  ETV
attr interpolationmode  none
attr source  sentPk
attr title  "packets sent, vector(packetBytes)"
vector 32  AODVVANET.vehicle[1].networkLayer.arp  sentReq:vector  ETV
attr title  "ARP request sent, vector"
vector 38  AODVVANET.vehicle[1].wlan.mac  rcvdPkFromHL:vector(packetBytes)  ETV
attr interpolationmode  none
attr source  packetReceivedFromUpper
attr title  "packets received from higher layer, vector(packetBytes)"
vector 37  AODVVANET.vehicle[1].wlan.mac  sentDownPk:vector(packetBytes)  ETV
attr interpolationmode  none
attr source  packetSentToLower
attr title  "packets sent to lower layer, vector(packetBytes)"
vector 61  AODVVANET.vehicle[2].wlan.mgmt  dataQueueLen:vector  ETV
attr interpolationmode  sample-hold
attr title  "data queue length, vector"
vector 76  AODVVANET.vehicle[2].wlan.mac  RadioState  ETV
attr enum  "IDLE=0, OFF=4, RECV=1, SLEEP=3, TRANSMIT=2"
attr enumname  RadioState
vector 75  AODVVANET.vehicle[2].wlan.mac  State  ETV
attr enum  "BACKOFF=3, DEFER=1, IDLE=0, RECEIVE=8, WAITACK=4, WAITAIFS=2, WAITCTS=6, WAITMULTICAST=5, WAITSIFS=7"
attr enumname  Ieee80211Mac
vector 78  AODVVANET.vehicle[2].wlan.mac  "throughput AC0"  ETV
vector 67  AODVVANET.vehicle[2].wlan.radio  bitrate:vector  ETV
attr interpolationmode  sample-hold
attr title  "tx bitrate, vector"
attr unit  bps
vector 69  AODVVANET.vehicle[2].wlan.radio  radioState:vector  ETV
attr interpolationmode  sample-hold
attr title  "radio state (enum), vector"
vector 68  AODVVANET.vehicle[2].wlan.radio  channelNo:vector  ETV
attr interpolationmode  sample-hold
attr title  "channel no, vector"
vector 71  AODVVANET.vehicle[2].mobility  posx  ETV
vector 72  AODVVANET.vehicle[2].mobility  posy  ETV
vector 46  AODVVANET.vehicle[1].mobility  speed  ETV
vector 54  AODVVANET.vehicle[2].udp  sentPk:vector(packetBytes)  ETV
attr interpolationmode  none
attr source  sentPk
attr title  "packets sent, vector(packetBytes)"
vector 65  AODVVANET.vehicle[2].wlan.mac  rcvdPkFromHL:vector(packetBytes)  ETV
attr interpolationmode  none
attr source  packetReceivedFromUpper
attr title  "packets received from higher layer, vector(packetBytes)"
vector 64  AODVVANET.vehicle[2].wlan.mac  sentDownPk:vector(packetBytes)  ETV
attr interpolationmode  none
attr source  packetSentToLower
attr title  "packets sent to lower layer, vector(packetBytes)"
vector 47  AODVVANET.vehicle[1].mobility  acceleration  ETV
vector 73  AODVVANET.vehicle[2].mobility  speed  ETV
vector 74  AODVVANET.vehicle[2].mobility  acceleration  ETV
vector 88  AODVVANET.vehicle[3].wlan.mgmt  dataQueueLen:vector  ETV
attr interpolationmode  sample-hold
attr title  "data queue length, vector"
vector 103  AODVVANET.vehicle[3].wlan.mac  RadioState  ETV
attr enum  "IDLE=0, OFF=4, RECV=1, SLEEP=3, TRANSMIT=2"
attr enumname  RadioState
vector 102  AODVVANET.vehicle[3].wlan.mac  State  ETV
attr enum  "BACKOFF=3, DEFER=1, IDLE=0, RECEIVE=8, WAITACK=4, WAITAIFS=2, WAITCTS=6, WAITMULTICAST=5, WAITSIFS=7"
attr enumname  Ieee80211Mac
vector 105  AODVVANET.vehicle[3].wlan.mac  "throughput AC0"  ETV
vector 94  AODVVANET.vehicle[3].wlan.radio  bitrate:vector  ETV
attr interpolationmode  sample-hold
attr title  "tx bitrate, vector"
attr unit  bps
vector 96  AODVVANET.vehicle[3].wlan.radio  radioState:vector  ETV
attr interpolationmode  sample-hold
attr title  "radio state (enum), vector"
vector 95  AODVVANET.vehicle[3].wlan.radio  channelNo:vector  ETV
attr interpolationmode  sample-hold
attr title  "channel no, vector"
vector 98  AODVVANET.vehicle[3].mobility  posx  ETV
vector 99  AODVVANET.vehicle[3].mobility  posy  ETV
vector 81  AODVVANET.vehicle[3].udp  sentPk:vector(packetBytes)  ETV
attr interpolationmode  none
attr source  sentPk
attr title  "packets sent, vector(packetBytes)"
vector 92  AODVVANET.vehicle[3].wlan.mac  rcvdPkFromHL:vector(packetBytes)  ETV
attr interpolationmode  none
attr source  packetReceivedFromUpper
attr title  "packets received from higher layer, vector(packetBytes)"
vector 91  AODVVANET.vehicle[3].wlan.mac  sentDownPk:vector(packetBytes)  ETV
attr interpolationmode  none
attr source  packetSentToLower
attr title  "packets sent to lower layer, vector(packetBytes)"
vector 100  AODVVANET.vehicle[3].mobility  speed  ETV
vector 101  AODVVANET.vehicle[3].mobility  acceleration  ETV
vector 115  AODVVANET.vehicle[4].wlan.mgmt  dataQueueLen:vector  ETV
attr interpolationmode  sample-hold
attr title  "data queue length, vector"
vector 130  AODVVANET.vehicle[4].wlan.mac  RadioState  ETV
attr enum  "IDLE=0, OFF=4, RECV=1, SLEEP=3, TRANSMIT=2"
attr enumname  RadioState
vector 129  AODVVANET.vehicle[4].wlan.mac  State  ETV
attr enum  "BACKOFF=3, DEFER=1, IDLE=0, RECEIVE=8, WAITACK=4, WAITAIFS=2, WAITCTS=6, WAITMULTICAST=5, WAITSIFS=7"
attr enumname  Ieee80211Mac
vector 132  AODVVANET.vehicle[4].wlan.mac  "throughput AC0"  ETV
vector 121  AODVVANET.vehicle[4].wlan.radio  bitrate:vector  ETV
attr interpolationmode  sample-hold
attr title  "tx bitrate, vector"
attr unit  bps
vector 123  AODVVANET.vehicle[4].wlan.radio  radioState:vector  ETV
attr interpolationmode  sample-hold
attr title  "radio state (enum), vector"
vector 122  AODVVANET.vehicle[4].wlan.radio  channelNo:vector  ETV
attr interpolationmode  sample-hold
attr title  "channel no, vector"
vector 125  AODVVANET.vehicle[4].mobility  posx  ETV
vector 126  AODVVANET.vehicle[4].mobility  posy  ETV
vector 108  AODVVANET.vehicle[4].udp  sentPk:vector(packetBytes)  ETV
attr interpolationmode  none
attr source  sentPk
attr title  "packets sent, vector(packetBytes)"
vector 119  AODVVANET.vehicle[4].wlan.mac  rcvdPkFromHL:vector(packetBytes)  ETV
attr interpolationmode  none
attr source  packetReceivedFromUpper
attr title  "packets received from higher layer, vector(packetBytes)"
vector 118  AODVVANET.vehicle[4].wlan.mac  sentDownPk:vector(packetBytes)  ETV
attr interpolationmode  none
attr source  packetSentToLower
attr title  "packets sent to lower layer, vector(packetBytes)"
vector 127  AODVVANET.vehicle[4].mobility  speed  ETV
vector 128  AODVVANET.vehicle[4].mobility  acceleration  ETV
vector 142  AODVVANET.vehicle[5].wlan.mgmt  dataQueueLen:vector  ETV
attr interpolationmode  sample-hold
attr title  "data queue length, vector"
vector 157  AODVVANET.vehicle[5].wlan.mac  RadioState  ETV
attr enum  "IDLE=0, OFF=4, RECV=1, SLEEP=3, TRANSMIT=2"
attr enumname  RadioState
vector 156  AODVVANET.vehicle[5].wlan.mac  State  ETV
attr enum  "BACKOFF=3, DEFER=1, IDLE=0, RECEIVE=8, WAITACK=4, WAITAIFS=2, WAITCTS=6, WAITMULTICAST=5, WAITSIFS=7"
attr enumname  Ieee80211Mac
vector 159  AODVVANET.vehicle[5].wlan.mac  "throughput AC0"  ETV
vector 148  AODVVANET.vehicle[5].wlan.radio  bitrate:vector  ETV
attr interpolationmode  sample-hold
attr title  "tx bitrate, vector"
attr unit  bps
vector 150  AODVVANET.vehicle[5].wlan.radio  radioState:vector  ETV
attr interpolationmode  sample-hold
attr title  "radio state (enum), vector"
vector 149  AODVVANET.vehicle[5].wlan.radio  channelNo:vector  ETV
attr interpolationmode  sample-hold
attr title  "channel no, vector"
vector 152  AODVVANET.vehicle[5].mobility  posx  ETV
vector 153  AODVVANET.vehicle[5].mobility  posy  ETV
vector 135  AODVVANET.vehicle[5].udp  sentPk:vector(packetBytes)  ETV
attr interpolationmode  none
attr source  sentPk
attr title  "packets sent, vector(packetBytes)"
vector 146  AODVVANET.vehicle[5].wlan.mac  rcvdPkFromHL:vector(packetBytes)  ETV
attr interpolationmode  none
attr source  packetReceivedFromUpper
attr title  "packets received from higher layer, vector(packetBytes)"
vector 145  AODVVANET.vehicle[5].wlan.mac  sentDownPk:vector(packetBytes)  ETV
attr interpolationmode  none
attr source  packetSentToLower
attr title  "packets sent to lower layer, vector(packetBytes)"
vector 154  AODVVANET.vehicle[5].mobility  speed  ETV
vector 155  AODVVANET.vehicle[5].mobility  acceleration  ETV
vector 169  AODVVANET.vehicle[6].wlan.mgmt  dataQueueLen:vector  ETV
attr interpolationmode  sample-hold
attr title  "data queue length, vector"
vector 184  AODVVANET.vehicle[6].wlan.mac  RadioState  ETV
attr enum  "IDLE=0, OFF=4, RECV=1, SLEEP=3, TRANSMIT=2"
attr enumname  RadioState
vector 183  AODVVANET.vehicle[6].wlan.mac  State  ETV
attr enum  "BACKOFF=3, DEFER=1, IDLE=0, RECEIVE=8, WAITACK=4, WAITAIFS=2, WAITCTS=6, WAITMULTICAST=5, WAITSIFS=7"
attr enumname  Ieee80211Mac
vector 186  AODVVANET.vehicle[6].wlan.mac  "throughput AC0"  ETV
vector 175  AODVVANET.vehicle[6].wlan.radio  bitrate:vector  ETV
attr interpolationmode  sample-hold
attr title  "tx bitrate, vector"
attr unit  bps
vector 177  AODVVANET.vehicle[6].wlan.radio  radioState:vector  ETV
attr interpolationmode  sample-hold
attr title  "radio state (enum), vector"
vector 176  AODVVANET.vehicle[6].wlan.radio  channelNo:vector  ETV
attr interpolationmode  sample-hold
attr title  "channel no, vector"
vector 179  AODVVANET.vehicle[6].mobility  posx  ETV
vector 180  AODVVANET.vehicle[6].mobility  posy  ETV
vector 162  AODVVANET.vehicle[6].udp  sentPk:vector(packetBytes)  ETV
attr interpolationmode  none
attr source  sentPk
attr title  "packets sent, vector(packetBytes)"
vector 173  AODVVANET.vehicle[6].wlan.mac  rcvdPkFromHL:vector(packetBytes)  ETV
attr interpolationmode  none
attr source  packetReceivedFromUpper
attr title  "packets received from higher layer, vector(packetBytes)"
vector 172  AODVVANET.vehicle[6].wlan.mac  sentDownPk:vector(packetBytes)  ETV
attr interpolationmode  none
attr source  packetSentToLower
attr title  "packets sent to lower layer, vector(packetBytes)"
vector 181  AODVVANET.vehicle[6].mobility  speed  ETV
vector 182  AODVVANET.vehicle[6].mobility  acceleration  ETV
vector 196  AODVVANET.vehicle[7].wlan.mgmt  dataQueueLen:vector  ETV
attr interpolationmode  sample-hold
attr title  "data queue length, vector"
vector 211  AODVVANET.vehicle[7].wlan.mac  RadioState  ETV
attr enum  "IDLE=0, OFF=4, RECV=1, SLEEP=3, TRANSMIT=2"
attr enumname  RadioState
vector 210  AODVVANET.vehicle[7].wlan.mac  State  ETV
attr enum  "BACKOFF=3, DEFER=1, IDLE=0, RECEIVE=8, WAITACK=4, WAITAIFS=2, WAITCTS=6, WAITMULTICAST=5, WAITSIFS=7"
attr enumname  Ieee80211Mac
vector 213  AODVVANET.vehicle[7].wlan.mac  "throughput AC0"  ETV
vector 202  AODVVANET.vehicle[7].wlan.radio  bitrate:vector  ETV
attr interpolationmode  sample-hold
attr title  "tx bitrate, vector"
attr unit  bps
vector 204  AODVVANET.vehicle[7].wlan.radio  radioState:vector  ETV
attr interpolationmode  sample-hold
attr title  "radio state (enum), vector"
vector 203  AODVVANET.vehicle[7].wlan.radio  channelNo:vector  ETV
attr interpolationmode  sample-hold
attr title  "channel no, vector"
vector 206  AODVVANET.vehicle[7].mobility  posx  ETV
vector 207  AODVVANET.vehicle[7].mobility  posy  ETV
vector 189  AODVVANET.vehicle[7].udp  sentPk:vector(packetBytes)  ETV
attr interpolationmode  none
attr source  sentPk
attr title  "packets sent, vector(packetBytes)"
vector 200  AODVVANET.vehicle[7].wlan.mac  rcvdPkFromHL:vector(packetBytes)  ETV
attr interpolationmode  none
attr source  packetReceivedFromUpper
attr title  "packets received from higher layer, vector(packetBytes)"
vector 199  AODVVANET.vehicle[7].wlan.mac  sentDownPk:vector(packetBytes)  ETV
attr interpolationmode  none
attr source  packetSentToLower
attr title  "packets sent to lower layer, vector(packetBytes)"
vector 26  AODVVANET.vehicle[0].wlan.radio  snirVector  ETV
vector 12  AODVVANET.vehicle[0].wlan.mac  rcvdPkFromLL:vector(packetBytes)  ETV
attr interpolationmode  none
attr source  packetReceivedFromLower
attr title  "packets received from lower layer, vector(packetBytes)"
vector 9  AODVVANET.vehicle[0].wlan.mac  passedUpPk:vector(packetBytes)  ETV
attr interpolationmode  none
attr source  packetSentToUpper
attr title  "packets passed to higher layer, vector(packetBytes)"
vector 215  AODVVANET.vehicle[7].wlan.radio  snirVector  ETV
vector 201  AODVVANET.vehicle[7].wlan.mac  rcvdPkFromLL:vector(packetBytes)  ETV
attr interpolationmode  none
attr source  packetReceivedFromLower
attr title  "packets received from lower layer, vector(packetBytes)"
vector 198  AODVVANET.vehicle[7].wlan.mac  passedUpPk:vector(packetBytes)  ETV
attr interpolationmode  none
attr source  packetSentToUpper
attr title  "packets passed to higher layer, vector(packetBytes)"
vector 208  AODVVANET.vehicle[7].mobility  speed  ETV
vector 209  AODVVANET.vehicle[7].mobility  acceleration  ETV
vector 223  AODVVANET.vehicle[8].wlan.mgmt  dataQueueLen:vector  ETV
attr interpolationmode  sample-hold
attr title  "data queue length, vector"
vector 238  AODVVANET.vehicle[8].wlan.mac  RadioState  ETV
attr enum  "IDLE=0, OFF=4, RECV=1, SLEEP=3, TRANSMIT=2"
attr enumname  RadioState
vector 237  AODVVANET.vehicle[8].wlan.mac  State  ETV
attr enum  "BACKOFF=3, DEFER=1, IDLE=0, RECEIVE=8, WAITACK=4, WAITAIFS=2, WAITCTS=6, WAITMULTICAST=5, WAITSIFS=7"
attr enumname  Ieee80211Mac
vector 240  AODVVANET.vehicle[8].wlan.mac  "throughput AC0"  ETV
vector 229  AODVVANET.vehicle[8].wlan.radio  bitrate:vector  ETV
attr interpolationmode  sample-hold
attr title  "tx bitrate, vector"
attr unit  bps
vector 231  AODVVANET.vehicle[8].wlan.radio  radioState:vector  ETV
attr interpolationmode  sample-hold
attr title  "radio state (enum), vector"
vector 230  AODVVANET.vehicle[8].wlan.radio  channelNo:vector  ETV
attr interpolationmode  sample-hold
attr title  "channel no, vector"
vector 233  AODVVANET.vehicle[8].mobility  posx  ETV
vector 234  AODVVANET.vehicle[8].mobility  posy  ETV
vector 216  AODVVANET.vehicle[8].udp  sentPk:vector(packetBytes)  ETV
attr interpolationmode  none
attr source  sentPk
attr title  "packets sent, vector(packetBytes)"
vector 227  AODVVANET.vehicle[8].wlan.mac  rcvdPkFromHL:vector(packetBytes)  ETV
attr interpolationmode  none
attr source  packetReceivedFromUpper
attr title  "packets received from higher layer, vector(packetBytes)"
vector 226  AODVVANET.vehicle[8].wlan.mac  sentDownPk:vector(packetBytes)  ETV
attr interpolationmode  none
attr source  packetSentToLower
attr title  "packets sent to lower layer, vector(packetBytes)"
vector 235  AODVVANET.vehicle[8].mobility  speed  ETV
vector 236  AODVVANET.vehicle[8].mobility  acceleration  ETV
vector 250  AODVVANET.vehicle[9].wlan.mgmt  dataQueueLen:vector  ETV
attr interpolationmode  sample-hold
attr title  "data queue length, vector"
vector 265  AODVVANET.vehicle[9].wlan.mac  RadioState  ETV
attr enum  "IDLE=0, OFF=4, RECV=1, SLEEP=3, TRANSMIT=2"
attr enumname  RadioState
vector 264  AODVVANET.vehicle[9].wlan.mac  State  ETV
attr enum  "BACKOFF=3, DEFER=1, IDLE=0, RECEIVE=8, WAITACK=4, WAITAIFS=2, WAITCTS=6, WAITMULTICAST=5, WAITSIFS=7"
attr enumname  Ieee80211Mac
vector 267  AODVVANET.vehicle[9].wlan.mac  "throughput AC0"  ETV
vector 256  AODVVANET.vehicle[9].wlan.radio  bitrate:vector  ETV
attr interpolationmode  sample-hold
attr title  "tx bitrate, vector"
attr unit  bps
vector 258  AODVVANET.vehicle[9].wlan.radio  radioState:vector  ETV
attr interpolationmode  sample-hold
attr title  "radio state (enum), vector"
vector 257  AODVVANET.vehicle[9].wlan.radio  channelNo:vector  ETV
attr interpolationmode  sample-hold
attr title  "channel no, vector"
vector 260  AODVVANET.vehicle[9].mobility  posx  ETV
vector 261  AODVVANET.vehicle[9].mobility  posy  ETV
vector 243  AODVVANET.vehicle[9].udp  sentPk:vector(packetBytes)  ETV
attr interpolationmode  none
attr source  sentPk
attr title  "packets sent, vector(packetBytes)"
vector 254  AODVVANET.vehicle[9].wlan.mac  rcvdPkFromHL:vector(packetBytes)  ETV
attr interpolationmode  none
attr source  packetReceivedFromUpper
attr title  "packets received from higher layer, vector(packetBytes)"
vector 253  AODVVANET.vehicle[9].wlan.mac  sentDownPk:vector(packetBytes)  ETV
attr interpolationmode  none
attr source  packetSentToLower
attr title  "packets sent to lower layer, vector(packetBytes)"
vector 134  AODVVANET.vehicle[4].wlan.radio  snirVector  ETV
vector 120  AODVVANET.vehicle[4].wlan.mac  rcvdPkFromLL:vector(packetBytes)  ETV
attr interpolationmode  none
attr source  packetReceivedFromLower
attr title  "packets received from lower layer, vector(packetBytes)"
vector 117  AODVVANET.vehicle[4].wlan.mac  passedUpPk:vector(packetBytes)  ETV
attr interpolationmode  none
attr source  packetSentToUpper
attr title  "packets passed to higher layer, vector(packetBytes)"
vector 269  AODVVANET.vehicle[9].wlan.radio  snirVector  ETV
vector 255  AODVVANET.vehicle[9].wlan.mac  rcvdPkFromLL:vector(packetBytes)  ETV
attr interpolationmode  none
attr source  packetReceivedFromLower
attr title  "packets received from lower layer, vector(packetBytes)"
vector 252  AODVVANET.vehicle[9].wlan.mac  passedUpPk:vector(packetBytes)  ETV
attr interpolationmode  none
attr source  packetSentToUpper
attr title  "packets passed to higher layer, vector(packetBytes)"
vector 262  AODVVANET.vehicle[9].mobility  speed  ETV
vector 263  AODVVANET.vehicle[9].mobility  acceleration  ETV
0	16	8	8
7	9	8	0
9	652	35.004147148601	62
9	691	35.322923206875	62
9	740	35.804071880668	62
9	788	36.44178995992	62
9	865	39.402556600979	62
9	990	42.36571454494	62
10	22	8.002794067511	62
10	32	8.323625946824	62
10	42	8.803063816851	62
10	54	9.442774415886	62
10	90	12.403279470575	62
10	186	15.362449885857	62
10	663	35.006446898548	62
10	702	35.327484949766	62
10	751	35.807387580828	62
10	799	36.44363072077	62
10	876	39.404231837116	62
10	1001	42.36903008655	62
11	21	8.002744067511	62
11	31	8.323575946824	62
11	41	8.803013816851	62
11	53	9.442724415886	62
11	89	12.403229470575	62
11	185	15.362399885857	62
11	662	35.006396898548	62
11	701	35.327434949766	62
11	750	35.807337580828	62
11	798	36.44358072077	62
11	875	39.404181837116	62
11	1000	42.36898008655	62
12	652	35.004147148601	62
12	691	35.322923206875	62
12	740	35.804071880668	62
12	788	36.44178995992	62
12	865	39.402556600979	62
12	990	42.36571454494	62
13	9	8	2000000
14	9	8	0
15	9	8	0
15	23	8.002794067511	2
15	25	8.003482067511	0
15	33	8.323625946824	2
15	35	8.324313946824	0
15	43	8.803063816851	2
15	45	8.803751816851	0
15	55	9.442774415886	2
15	57	9.443462415886	0
15	91	12.403279470575	2
15	94	12.403967470575	0
15	187	15.362449885857	2
15	190	15.363137885857	0
15	646	35.003459148601	1
15	651	35.004147148601	0
15	664	35.006446898548	2
15	669	35.007134898548	0
15	685	35.322235206875	1
15	690	35.322923206875	0
15	703	35.327484949766	2
15	708	35.328172949766	0
15	734	35.803383880668	1
15	739	35.804071880668	0
15	752	35.807387580828	2
15	757	35.808075580828	0
15	782	36.44110195992	1
15	787	36.44178995992	0
15	800	36.44363072077	2
15	805	36.44431872077	0
15	859	39.401868600979	1
15	864	39.402556600979	0
15	877	39.404231837116	2
15	882	39.404919837116	0
15	984	42.36502654494	1
15	989	42.36571454494	0
15	1002	42.36903008655	2
15	1007	42.36971808655	0
17	9	8	531.55
17	49	9	531.55
17	61	10	531.55
17	63	11	531.55
17	65	12	531.55
17	100	13	531.55
17	154	14	531.55
17	180	15	531.55
17	197	16	531.55
17	201	17	531.55
17	215	18	531.55
17	259	19	531.55
17	274	20	531.55
17	289	21	531.55
17	294	22	531.55
17	362	23	531.55
17	383	24	531.55
17	389	25	531.55
17	407	26	531.55
17	427	27	531.55
17	478	28	531.55
17	498	29	531.55
17	519	30	531.55
17	526	31	531.55
17	584	32	531.55
17	603	33	531.55
17	611	34	531.55
17	631	35	531.55
17	775	36	531.55
17	823	37	531.55
17	833	38	531.55
17	852	39	531.55
17	900	40	531.55
17	954	41	531.55
17	977	42	531.55
17	1026	43	531.55
17	1036	44	531.55
17	1058	45	531.55
17	1070	46	531.55
17	1080	47	531.55
17	1103	48	531.55
17	1113	49	531.55
17	1249	50	531.55
17	1300	51	531.55
17	1311	52	531.55
18	9	8	29.95
18	49	9	29.95
18	61	10	29.95
18	63	11	29.95
18	65	12	29.95
18	100	13	29.95
18	154	14	29.95
18	180	15	29.95
18	197	16	29.95
18	201	17	29.95
18	215	18	29.95
18	259	19	29.95
18	274	20	29.95
18	289	21	29.95
18	294	22	29.95
18	362	23	29.95
18	383	24	29.95
18	389	25	29.95
18	407	26	29.95
18	427	27	29.95
18	478	28	29.95
18	498	29	29.95
18	519	30	29.95
18	526	31	29.95
18	584	32	29.95
18	603	33	29.95
18	611	34	29.95
18	631	35	29.95
18	775	36	29.95
18	823	37	29.95
18	833	38	29.95
18	852	39	29.95
18	900	40	29.95
18	954	41	29.95
18	977	42	29.95
18	1026	43	29.95
18	1036	44	29.95
18	1058	45	29.95
18	1070	46	29.95
18	1080	47	29.95
18	1103	48	29.95
18	1113	49	29.95
18	1249	50	29.95
18	1300	51	29.95
18	1311	52	29.95
19	49	9	0
19	61	10	0
19	63	11	0
19	65	12	0
19	100	13	0
19	154	14	0
19	180	15	0
19	197	16	0
19	201	17	0
19	215	18	0
19	259	19	0
19	274	20	0
19	289	21	0
19	294	22	0
19	362	23	0
19	383	24	0
19	389	25	0
19	407	26	0
19	427	27	0
19	478	28	0
19	498	29	0
19	519	30	0
19	526	31	0
19	584	32	0
19	603	33	0
19	611	34	0
19	631	35	0
19	775	36	0
19	823	37	0
19	833	38	0
19	852	39	0
19	900	40	0
19	954	41	0
19	977	42	0
19	1026	43	0
19	1036	44	0
19	1058	45	0
19	1070	46	0
19	1080	47	0
19	1103	48	0
19	1113	49	0
19	1249	50	0
19	1300	51	0
19	1311	52	0
20	61	10	0
20	63	11	0
20	65	12	0
20	100	13	0
20	154	14	0
20	180	15	0
20	197	16	0
20	201	17	0
20	215	18	0
20	259	19	0
20	274	20	0
20	289	21	0
20	294	22	0
20	362	23	0
20	383	24	0
20	389	25	0
20	407	26	0
20	427	27	0
20	478	28	0
20	498	29	0
20	519	30	0
20	526	31	0
20	584	32	0
20	603	33	0
20	611	34	0
20	631	35	0
20	775	36	0
20	823	37	0
20	833	38	0
20	852	39	0
20	900	40	0
20	954	41	0
20	977	42	0
20	1026	43	0
20	1036	44	0
20	1058	45	0
20	1070	46	0
20	1080	47	0
20	1103	48	0
20	1113	49	0
20	1249	50	0
20	1300	51	0
20	1311	52	0
21	9	8	0
21	9	8	0
21	21	8.002744067511	0
21	21	8.002744067511	2
21	22	8.002794067511	2
21	22	8.002794067511	5
21	23	8.002794067511	5
21	23	8.002794067511	5
21	24	8.003482067511	5
21	24	8.003482067511	1
21	25	8.003482067511	1
21	25	8.003482067511	2
21	26	8.003532067511	2
21	26	8.003532067511	3
21	27	8.003672067511	3
21	27	8.003672067511	0
21	31	8.323575946824	0
21	31	8.323575946824	2
21	32	8.323625946824	2
21	32	8.323625946824	5
21	33	8.323625946824	5
21	33	8.323625946824	5
21	34	8.324313946824	5
21	34	8.324313946824	1
21	35	8.324313946824	1
21	35	8.324313946824	2
21	36	8.324363946824	2
21	36	8.324363946824	3
21	37	8.324363946824	3
21	37	8.324363946824	0
21	41	8.803013816851	0
21	41	8.803013816851	2
21	42	8.803063816851	2
21	42	8.803063816851	5
21	43	8.803063816851	5
21	43	8.803063816851	5
21	44	8.803751816851	5
21	44	8.803751816851	1
21	45	8.803751816851	1
21	45	8.803751816851	2
21	46	8.803801816851	2
21	46	8.803801816851	3
21	47	8.803861816851	3
21	47	8.803861816851	0
21	53	9.442724415886	0
21	53	9.442724415886	2
21	54	9.442774415886	2
21	54	9.442774415886	5
21	55	9.442774415886	5
21	55	9.442774415886	5
21	56	9.443462415886	5
21	56	9.443462415886	1
21	57	9.443462415886	1
21	57	9.443462415886	2
21	58	9.443512415886	2
21	58	9.443512415886	3
21	59	9.443652415886	3
21	59	9.443652415886	0
21	89	12.403229470575	0
21	89	12.403229470575	2
21	90	12.403279470575	2
21	90	12.403279470575	5
21	91	12.403279470575	5
21	91	12.403279470575	5
21	93	12.403967470575	5
21	93	12.403967470575	1
21	94	12.403967470575	1
21	94	12.403967470575	2
21	96	12.404017470575	2
21	96	12.404017470575	3
21	97	12.404057470575	3
21	97	12.404057470575	0
21	185	15.362399885857	0
21	185	15.362399885857	2
21	186	15.362449885857	2
21	186	15.362449885857	5
21	187	15.362449885857	5
21	187	15.362449885857	5
21	189	15.363137885857	5
21	189	15.363137885857	1
21	190	15.363137885857	1
21	190	15.363137885857	2
21	192	15.363187885857	2
21	192	15.363187885857	3
21	193	15.363187885857	3
21	193	15.363187885857	0
21	646	35.003459148601	0
21	646	35.003459148601	0
21	651	35.004147148601	0
21	651	35.004147148601	0
21	652	35.004147148601	0
21	652	35.004147148601	0
21	662	35.006396898548	0
21	662	35.006396898548	2
21	663	35.006446898548	2
21	663	35.006446898548	5
21	664	35.006446898548	5
21	664	35.006446898548	5
21	668	35.007134898548	5
21	668	35.007134898548	1
21	669	35.007134898548	1
21	669	35.007134898548	2
21	677	35.007184898548	2
21	677	35.007184898548	3
21	678	35.007324898548	3
21	678	35.007324898548	0
21	685	35.322235206875	0
21	685	35.322235206875	0
21	690	35.322923206875	0
21	690	35.322923206875	0
21	691	35.322923206875	0
21	691	35.322923206875	0
21	701	35.327434949766	0
21	701	35.327434949766	2
21	702	35.327484949766	2
21	702	35.327484949766	5
21	703	35.327484949766	5
21	703	35.327484949766	5
21	707	35.328172949766	5
21	707	35.328172949766	1
21	708	35.328172949766	1
21	708	35.328172949766	2
21	716	35.328222949766	2
21	716	35.328222949766	3
21	717	35.328362949766	3
21	717	35.328362949766	0
21	734	35.803383880668	0
21	734	35.803383880668	0
21	739	35.804071880668	0
21	739	35.804071880668	0
21	740	35.804071880668	0
21	740	35.804071880668	0
21	750	35.807337580828	0
21	750	35.807337580828	2
21	751	35.807387580828	2
21	751	35.807387580828	5
21	752	35.807387580828	5
21	752	35.807387580828	5
21	756	35.808075580828	5
21	756	35.808075580828	1
21	757	35.808075580828	1
21	757	35.808075580828	2
21	765	35.808125580828	2
21	765	35.808125580828	3
21	766	35.808185580828	3
21	766	35.808185580828	0
21	782	36.44110195992	0
21	782	36.44110195992	0
21	787	36.44178995992	0
21	787	36.44178995992	0
21	788	36.44178995992	0
21	788	36.44178995992	0
21	798	36.44358072077	0
21	798	36.44358072077	2
21	799	36.44363072077	2
21	799	36.44363072077	5
21	800	36.44363072077	5
21	800	36.44363072077	5
21	804	36.44431872077	5
21	804	36.44431872077	1
21	805	36.44431872077	1
21	805	36.44431872077	2
21	813	36.44436872077	2
21	813	36.44436872077	3
21	814	36.44436872077	3
21	814	36.44436872077	0
21	859	39.401868600979	0
21	859	39.401868600979	0
21	864	39.402556600979	0
21	864	39.402556600979	0
21	865	39.402556600979	0
21	865	39.402556600979	0
21	875	39.404181837116	0
21	875	39.404181837116	2
21	876	39.404231837116	2
21	876	39.404231837116	5
21	877	39.404231837116	5
21	877	39.404231837116	5
21	881	39.404919837116	5
21	881	39.404919837116	1
21	882	39.404919837116	1
21	882	39.404919837116	2
21	890	39.404969837116	2
21	890	39.404969837116	3
21	891	39.405009837116	3
21	891	39.405009837116	0
21	984	42.36502654494	0
21	984	42.36502654494	0
21	989	42.36571454494	0
21	989	42.36571454494	0
21	990	42.36571454494	0
21	990	42.36571454494	0
21	1000	42.36898008655	0
21	1000	42.36898008655	2
21	1001	42.36903008655	2
21	1001	42.36903008655	5
21	1002	42.36903008655	5
21	1002	42.36903008655	5
21	1006	42.36971808655	5
21	1006	42.36971808655	1
21	1007	42.36971808655	1
21	1007	42.36971808655	2
21	1015	42.36976808655	2
21	1015	42.36976808655	3
21	1016	42.36976808655	3
21	1016	42.36976808655	0
22	9	8	0
22	9	8	0
22	23	8.002794067511	0
22	23	8.002794067511	2
22	25	8.003482067511	2
22	25	8.003482067511	0
22	33	8.323625946824	0
22	33	8.323625946824	2
22	35	8.324313946824	2
22	35	8.324313946824	0
22	43	8.803063816851	0
22	43	8.803063816851	2
22	45	8.803751816851	2
22	45	8.803751816851	0
22	55	9.442774415886	0
22	55	9.442774415886	2
22	57	9.443462415886	2
22	57	9.443462415886	0
22	91	12.403279470575	0