file 721684 1439933839                                          
version 2
run AODV-Simple-100-0-20150813-02:04:25-4321
attr configname AODV-Simple-100
attr datetime 20150813-02:04:25
attr experiment AODV-Simple-100
attr inifile omnetpp.ini
attr iterationvars ""
attr iterationvars2 $repetition=0
attr measurement ""
attr network AODVSim
attr processid 4321
attr repetition 0
attr replication #0
attr resultdir results
attr runnumber 0
attr seedset 0
vector 2  AODVSim.rsu[0].wlan.mgmt  dataQueueLen:vector  ETV
attr interpolationmode sample-hold
attr title "data queue length, vector"
2	721609 8 0 0 0 0 1 0 0 0 0
vector 13  AODVSim.rsu[0].wlan.mac  RadioState  ETV
attr enum "IDLE=0, OFF=4, RECV=1, SLEEP=3, TRANSMIT=2"
attr enumname RadioState
13	721666 18 0 0 0 0 2 0 0 0 0
vector 12  AODVSim.rsu[0].wlan.mac  State  ETV
attr enum "BACKOFF=3, DEFER=1, IDLE=0, RECEIVE=8, WAITACK=4, WAITAIFS=2, WAITCTS=6, WAITMULTICAST=5, WAITSIFS=7"
attr enumname Ieee80211Mac
12	721648 18 0 0 0 0 2 0 0 0 0
vector 8  AODVSim.rsu[0].wlan.radio  bitrate:vector  ETV
attr interpolationmode sample-hold
attr title "tx bitrate, vector"
attr unit bps
8	721617 14 0 0 0 0 1 2000000 2000000 2000000 4000000000000
vector 10  AODVSim.rsu[0].wlan.radio  radioState:vector  ETV
attr interpolationmode sample-hold
attr title "radio state (enum), vector"
10	721639 9 0 0 0 0 1 0 0 0 0
vector 9  AODVSim.rsu[0].wlan.radio  channelNo:vector  ETV
attr interpolationmode sample-hold
attr title "channel no, vector"
9	721631 8 0 0 0 0 1 0 0 0 0
vector 25  AODVSim.vehicle[0].wlan.mgmt  dataQueueLen:vector  ETV
attr interpolationmode sample-hold
attr title "data queue length, vector"
25	79031 12 64 64 6.1 6.1 1 0 0 0 0
vector 40  AODVSim.vehicle[0].manetrouting.wlan[0].mgmt  dataQueueLen:vector  ETV
attr interpolationmode sample-hold
attr title "data queue length, vector"
40	79148 12 64 64 6.1 6.1 1 0 0 0 0
vector 56  AODVSim.vehicle[0].wlan.mac  RadioState  ETV
attr enum "IDLE=0, OFF=4, RECV=1, SLEEP=3, TRANSMIT=2"
attr enumname RadioState
56	141692 90 64 81 6.1 6.100802 6 0 2 4 8
vector 55  AODVSim.vehicle[0].wlan.mac  State  ETV
attr enum "BACKOFF=3, DEFER=1, IDLE=0, RECEIVE=8, WAITACK=4, WAITAIFS=2, WAITCTS=6, WAITMULTICAST=5, WAITSIFS=7"
attr enumname Ieee80211Mac
55	141782 248 64 83 6.1 6.100872 16 0 5 36 136
vector 58  AODVSim.vehicle[0].wlan.mac  "throughput AC0"  ETV
58	141680 12 64 64 6.1 6.1 1 0 0 0 0
vector 62  AODVSim.vehicle[0].manetrouting.wlan[0].mac  RadioState  ETV
attr enum "IDLE=0, OFF=4, RECV=1, SLEEP=3, TRANSMIT=2"
attr enumname RadioState
62	142042 24 64 64 6.1 6.1 2 0 0 0 0
vector 61  AODVSim.vehicle[0].manetrouting.wlan[0].mac  State  ETV
attr enum "BACKOFF=3, DEFER=1, IDLE=0, RECEIVE=8, WAITACK=4, WAITAIFS=2, WAITCTS=6, WAITMULTICAST=5, WAITSIFS=7"
attr enumname Ieee80211Mac
61	142066 24 64 64 6.1 6.1 2 0 0 0 0
vector 64  AODVSim.vehicle[0].manetrouting.wlan[0].mac  "throughput AC0"  ETV
64	142030 12 64 64 6.1 6.1 1 0 0 0 0
vector 31  AODVSim.vehicle[0].wlan.radio  bitrate:vector  ETV
attr interpolationmode sample-hold
attr title "tx bitrate, vector"
attr unit bps
31	79085 18 64 64 6.1 6.1 1 2000000 2000000 2000000 4000000000000
vector 33  AODVSim.vehicle[0].wlan.radio  radioState:vector  ETV
attr interpolationmode sample-hold
attr title "radio state (enum), vector"
33	79103 45 64 81 6.1 6.100802 3 0 2 2 4
vector 32  AODVSim.vehicle[0].wlan.radio  channelNo:vector  ETV
attr interpolationmode sample-hold
attr title "channel no, vector"
32	79073 12 64 64 6.1 6.1 1 0 0 0 0
vector 46  AODVSim.vehicle[0].manetrouting.wlan[0].radio  bitrate:vector  ETV
attr interpolationmode sample-hold
attr title "tx bitrate, vector"
attr unit bps
46	79172 19 64 64 6.1 6.1 1 54000000 54000000 54000000 2.916e+15
vector 48  AODVSim.vehicle[0].manetrouting.wlan[0].radio  radioState:vector  ETV
attr interpolationmode sample-hold
attr title "radio state (enum), vector"
48	79191 12 64 64 6.1 6.1 1 0 0 0 0
vector 47  AODVSim.vehicle[0].manetrouting.wlan[0].radio  channelNo:vector  ETV
attr interpolationmode sample-hold
attr title "channel no, vector"
47	79160 12 64 64 6.1 6.1 1 0 0 0 0
vector 50  AODVSim.vehicle[0].mobility  posx  ETV
50	132086 9594 64 1369 6.1 54.1 481 1020.05 1020.05 490644.05 500481463.2025
vector 51  AODVSim.vehicle[0].mobility  posy  ETV
51	118703 13383 64 1369 6.1 54.1 481 38.15 657.56980654908 156667.4153484 68316745.370057
vector 18  AODVSim.vehicle[0].udp  sentPk:vector(packetBytes)  ETV
attr interpolationmode none
attr source sentPk
attr title "packets sent, vector(packetBytes)"
18	79019 12 74 74 6.1 6.1 1 8 8 8 64
vector 29  AODVSim.vehicle[0].wlan.mac  rcvdPkFromHL:vector(packetBytes)  ETV
attr interpolationmode none
attr source packetReceivedFromUpper
attr title "packets received from higher layer, vector(packetBytes)"
29	79043 13 77 77 6.1 6.1 1 70 70 70 4900
vector 28  AODVSim.vehicle[0].wlan.mac  sentDownPk:vector(packetBytes)  ETV
attr interpolationmode none
attr source packetSentToLower
attr title "packets sent to lower layer, vector(packetBytes)"
28	79056 17 78 78 6.10005 6.10005 1 70 70 70 4900
vector 52  AODVSim.vehicle[0].mobility  speed  ETV
52	105345 13358 84 1369 6.2 54.1 480 0.25286542447004 13.999820163865 6208.0745809187 84134.947175451
vector 53  AODVSim.vehicle[0].mobility  acceleration  ETV
53	91360 13985 85 1369 6.3 54.1 479 -1.1890771305887 2.5262731315568 136.2365000343 388.70142352573
vector 54  AODVSim.vehicle[0].mobility  co2emission  ETV
54	79203 12157 85 1369 6.3 54.1 479 0.973 10.058832222791 1310.3397399808 5044.2862678484
vector 74  AODVSim.vehicle[1].wlan.mgmt  dataQueueLen:vector  ETV
attr interpolationmode sample-hold
attr title "data queue length, vector"
74	417498 12 94 94 7.1 7.1 1 0 0 0 0
vector 89  AODVSim.vehicle[1].manetrouting.wlan[0].mgmt  dataQueueLen:vector  ETV
attr interpolationmode sample-hold
attr title "data queue length, vector"
89	417619 12 94 94 7.1 7.1 1 0 0 0 0
vector 105  AODVSim.vehicle[1].wlan.mac  RadioState  ETV
attr enum "IDLE=0, OFF=4, RECV=1, SLEEP=3, TRANSMIT=2"
attr enumname RadioState
105	480671 100 94 111 7.1 7.100802 6 0 2 4 8
vector 104  AODVSim.vehicle[1].wlan.mac  State  ETV
attr enum "BACKOFF=3, DEFER=1, IDLE=0, RECEIVE=8, WAITACK=4, WAITAIFS=2, WAITCTS=6, WAITMULTICAST=5, WAITSIFS=7"
attr enumname Ieee80211Mac
104	480771 278 94 113 7.1 7.100992 16 0 5 36 136
vector 107  AODVSim.vehicle[1].wlan.mac  "throughput AC0"  ETV
107	480658 13 94 94 7.1 7.1 1 0 0 0 0
vector 111  AODVSim.vehicle[1].manetrouting.wlan[0].mac  RadioState  ETV
attr enum "IDLE=0, OFF=4, RECV=1, SLEEP=3, TRANSMIT=2"
attr enumname RadioState
111	481062 26 94 94 7.1 7.1 2 0 0 0 0
vector 110  AODVSim.vehicle[1].manetrouting.wlan[0].mac  State  ETV
attr enum "BACKOFF=3, DEFER=1, IDLE=0, RECEIVE=8, WAITACK=4, WAITAIFS=2, WAITCTS=6, WAITMULTICAST=5, WAITSIFS=7"
attr enumname Ieee80211Mac
110	481088 26 94 94 7.1 7.1 2 0 0 0 0
vector 113  AODVSim.vehicle[1].manetrouting.wlan[0].mac  "throughput AC0"  ETV
113	481049 13 94 94 7.1 7.1 1 0 0 0 0
vector 80  AODVSim.vehicle[1].wlan.radio  bitrate:vector  ETV
attr interpolationmode sample-hold
attr title "tx bitrate, vector"
attr unit bps
80	417554 18 94 94 7.1 7.1 1 2000000 2000000 2000000 4000000000000
vector 82  AODVSim.vehicle[1].wlan.radio  radioState:vector  ETV
attr interpolationmode sample-hold
attr title "radio state (enum), vector"
82	417572 47 94 111 7.1 7.100802 3 0 2 2 4
vector 81  AODVSim.vehicle[1].wlan.radio  channelNo:vector  ETV
attr interpolationmode sample-hold
attr title "channel no, vector"
81	417542 12 94 94 7.1 7.1 1 0 0 0 0
vector 95  AODVSim.vehicle[1].manetrouting.wlan[0].radio  bitrate:vector  ETV
attr interpolationmode sample-hold
attr title "tx bitrate, vector"
attr unit bps
95	417643 19 94 94 7.1 7.1 1 54000000 54000000 54000000 2.916e+15
vector 97  AODVSim.vehicle[1].manetrouting.wlan[0].radio  radioState:vector  ETV
attr interpolationmode sample-hold
attr title "radio state (enum), vector"
97	417662 12 94 94 7.1 7.1 1 0 0 0 0
vector 96  AODVSim.vehicle[1].manetrouting.wlan[0].radio  channelNo:vector  ETV
attr interpolationmode sample-hold
attr title "channel no, vector"
96	417631 12 94 94 7.1 7.1 1 0 0 0 0
vector 99  AODVSim.vehicle[1].mobility  posx  ETV
99	471242 9416 94 1369 7.1 54.1 471 2020.05 2020.05 951443.55000001 1921963543.1775
vector 100  AODVSim.vehicle[1].mobility  posy  ETV
100	457648 13594 94 1369 7.1 54.1 471 1038.15 1645.2256488673 621772.55194644 837070497.91802
vector 67  AODVSim.vehicle[1].udp  sentPk:vector(packetBytes)  ETV
attr interpolationmode none
attr source sentPk
attr title "packets sent, vector(packetBytes)"
67	417485 13 104 104 7.1 7.1 1 8 8 8 64
vector 78  AODVSim.vehicle[1].wlan.mac  rcvdPkFromHL:vector(packetBytes)  ETV
attr interpolationmode none
attr source packetReceivedFromUpper
attr title "packets received from higher layer, vector(packetBytes)"
78	417510 14 107 107 7.1 7.1 1 70 70 70 4900
vector 77  AODVSim.vehicle[1].wlan.mac  sentDownPk:vector(packetBytes)  ETV
attr interpolationmode none
attr source packetSentToLower
attr title "packets sent to lower layer, vector(packetBytes)"
77	417524 18 108 108 7.10005 7.10005 1 70 70 70 4900
vector 101  AODVSim.vehicle[1].mobility  speed  ETV
101	444072 13576 114 1369 7.2 54.1 470 0.2516033765038 13.999416294557 6084.6445196267 82595.218842036
vector 102  AODVSim.vehicle[1].mobility  acceleration  ETV
102	429890 14182 115 1369 7.3 54.1 469 -1.2790911892429 2.5938958732877 136.36427577339 397.72098484446
vector 103  AODVSim.vehicle[1].mobility  co2emission  ETV
103	417674 12216 115 1369 7.3 54.1 469 0.973 10.272105466796 1275.3132802558 5019.7893544207
vector 123  AODVSim.vehicle[2].wlan.mgmt  dataQueueLen:vector  ETV
attr interpolationmode sample-hold
attr title "data queue length, vector"
123	551522 15 149 149 10.1 10.1 1 0 0 0 0
vector 138  AODVSim.vehicle[2].manetrouting.wlan[0].mgmt  dataQueueLen:vector  ETV
attr interpolationmode sample-hold
attr title "data queue length, vector"
138	551663 15 149 149 10.1 10.1 1 0 0 0 0
vector 154  AODVSim.vehicle[2].wlan.mac  RadioState  ETV
attr enum "IDLE=0, OFF=4, RECV=1, SLEEP=3, TRANSMIT=2"
attr enumname RadioState
154	611417 108 149 166 10.1 10.100802 6 0 2 4 8
vector 153  AODVSim.vehicle[2].wlan.mac  State  ETV
attr enum "BACKOFF=3, DEFER=1, IDLE=0, RECEIVE=8, WAITACK=4, WAITAIFS=2, WAITCTS=6, WAITMULTICAST=5, WAITSIFS=7"
attr enumname Ieee80211Mac
153	611525 296 149 168 10.1 10.100892 16 0 5 36 136
vector 156  AODVSim.vehicle[2].wlan.mac  "throughput AC0"  ETV
156	611402 15 149 149 10.1 10.1 1 0 0 0 0
vector 160  AODVSim.vehicle[2].manetrouting.wlan[0].mac  RadioState  ETV
attr enum "IDLE=0, OFF=4, RECV=1, SLEEP=3, TRANSMIT=2"
attr enumname RadioState
160	611836 30 149 149 10.1 10.1 2 0 0 0 0
vector 159  AODVSim.vehicle[2].manetrouting.wlan[0].mac  State  ETV
attr enum "BACKOFF=3, DEFER=1, IDLE=0, RECEIVE=8, WAITACK=4, WAITAIFS=2, WAITCTS=6, WAITMULTICAST=5, WAITSIFS=7"
attr enumname Ieee80211Mac
159	611866 30 149 149 10.1 10.1 2 0 0 0 0
vector 162  AODVSim.vehicle[2].manetrouting.wlan[0].mac  "throughput AC0"  ETV
162	611821 15 149 149 10.1 10.1 1 0 0 0 0
vector 129  AODVSim.vehicle[2].wlan.radio  bitrate:vector  ETV
attr interpolationmode sample-hold
attr title "tx bitrate, vector"
attr unit bps
129	551588 21 149 149 10.1 10.1 1 2000000 2000000 2000000 4000000000000
vector 131  AODVSim.vehicle[2].wlan.radio  radioState:vector  ETV
attr interpolationmode sample-hold
attr title "radio state (enum), vector"
131	551609 54 149 166 10.1 10.100802 3 0 2 2 4
vector 130  AODVSim.vehicle[2].wlan.radio  channelNo:vector  ETV
attr interpolationmode sample-hold
attr title "channel no, vector"
130	551573 15 149 149 10.1 10.1 1 0 0 0 0
vector 144  AODVSim.vehicle[2].manetrouting.wlan[0].radio  bitrate:vector  ETV
attr interpolationmode sample-hold
attr title "tx bitrate, vector"
attr unit bps
144	551693 22 149 149 10.1 10.1 1 54000000 54000000 54000000 2.916e+15
vector 146  AODVSim.vehicle[2].manetrouting.wlan[0].radio  radioState:vector  ETV
attr interpolationmode sample-hold
attr title "radio state (enum), vector"
146	551715 15 149 149 10.1 10.1 1 0 0 0 0
vector 145  AODVSim.vehicle[2].manetrouting.wlan[0].radio  channelNo:vector  ETV
attr interpolationmode sample-hold
attr title "channel no, vector"
145	551678 15 149 149 10.1 10.1 1 0 0 0 0
vector 148  AODVSim.vehicle[2].mobility  posx  ETV
148	602109 9293 149 1369 10.1 54.1 441 2020.05 2020.05 890842.05000001 1799545483.1025
vector 149  AODVSim.vehicle[2].mobility  posy  ETV
149	589364 12745 149 1369 10.1 54.1 441 38.15 602.91007551808 131832.95643325 52665974.327462
vector 116  AODVSim.vehicle[2].udp  sentPk:vector(packetBytes)  ETV
attr interpolationmode none
attr source sentPk
attr title "packets sent, vector(packetBytes)"
116	551507 15 159 159 10.1 10.1 1 8 8 8 64
vector 127  AODVSim.vehicle[2].wlan.mac  rcvdPkFromHL:vector(packetBytes)  ETV
attr interpolationmode none
attr source packetReceivedFromUpper
attr title "packets received from higher layer, vector(packetBytes)"
127	551537 16 162 162 10.1 10.1 1 70 70 70 4900
vector 126  AODVSim.vehicle[2].wlan.mac  sentDownPk:vector(packetBytes)  ETV
attr interpolationmode none
attr source packetSentToLower
attr title "packets sent to lower layer, vector(packetBytes)"
126	551553 20 163 163 10.10005 10.10005 1 70 70 70 4900
vector 150  AODVSim.vehicle[2].mobility  speed  ETV
150	576608 12756 169 1369 10.2 54.1 440 0.25197073848895 13.999473746277 5661.4815444692 76587.654550233
vector 151  AODVSim.vehicle[2].mobility  acceleration  ETV
151	563299 13309 170 1369 10.3 54.1 439 -1.2224542669719 2.5823568655644 136.28818549894 397.50406924656
vector 152  AODVSim.vehicle[2].mobility  co2emission  ETV
152	551730 11569 170 1369 10.3 54.1 439 0.973 9.8705540561311 1225.6493416593 4900.4456019541
vector 172  AODVSim.vehicle[3].wlan.mgmt  dataQueueLen:vector  ETV
attr interpolationmode sample-hold
attr title "data queue length, vector"
172	612252 15 181 181 11.1 11.1 1 0 0 0 0
vector 187  AODVSim.vehicle[3].manetrouting.wlan[0].mgmt  dataQueueLen:vector  ETV
attr interpolationmode sample-hold
attr title "data queue length, vector"
187	612393 15 181 181 11.1 11.1 1 0 0 0 0
vector 203  AODVSim.vehicle[3].wlan.mac  RadioState  ETV
attr enum "IDLE=0, OFF=4, RECV=1, SLEEP=3, TRANSMIT=2"
attr enumname RadioState
203	670069 108 181 198 11.1 11.100802 6 0 2 4 8
vector 202  AODVSim.vehicle[3].wlan.mac  State  ETV
attr enum "BACKOFF=3, DEFER=1, IDLE=0, RECEIVE=8, WAITACK=4, WAITAIFS=2, WAITCTS=6, WAITMULTICAST=5, WAITSIFS=7"
attr enumname Ieee80211Mac
202	670177 296 181 200 11.1 11.100972 16 0 5 36 136
vector 205  AODVSim.vehicle[3].wlan.mac  "throughput AC0"  ETV
205	670054 15 181 181 11.1 11.1 1 0 0 0 0
vector 209  AODVSim.vehicle[3].manetrouting.wlan[0].mac  RadioState  ETV
attr enum "IDLE=0, OFF=4, RECV=1, SLEEP=3, TRANSMIT=2"
attr enumname RadioState
209	670488 30 181 181 11.1 11.1 2 0 0 0 0
vector 208  AODVSim.vehicle[3].manetrouting.wlan[0].mac  State  ETV
attr enum "BACKOFF=3, DEFER=1, IDLE=0, RECEIVE=8, WAITACK=4, WAITAIFS=2, WAITCTS=6, WAITMULTICAST=5, WAITSIFS=7"
attr enumname Ieee80211Mac
208	670518 30 181 181 11.1 11.1 2 0 0 0 0
vector 211  AODVSim.vehicle[3].manetrouting.wlan[0].mac  "throughput AC0"  ETV
211	670473 15 181 181 11.1 11.1 1 0 0 0 0
vector 178  AODVSim.vehicle[3].wlan.radio  bitrate:vector  ETV
attr interpolationmode sample-hold
attr title "tx bitrate, vector"
attr unit bps
178	612318 21 181 181 11.1 11.1 1 2000000 2000000 2000000 4000000000000
vector 180  AODVSim.vehicle[3].wlan.radio  radioState:vector  ETV
attr interpolationmode sample-hold
attr title "radio state (enum), vector"
180	612339 54 181 198 11.1 11.100802 3 0 2 2 4
vector 179  AODVSim.vehicle[3].wlan.radio  channelNo:vector  ETV
attr interpolationmode sample-hold
attr title "channel no, vector"
179	612303 15 181 181 11.1 11.1 1 0 0 0 0
vector 193  AODVSim.vehicle[3].manetrouting.wlan[0].radio  bitrate:vector  ETV
attr interpolationmode sample-hold
attr title "tx bitrate, vector"
attr unit bps
193	612423 22 181 181 11.1 11.1 1 54000000 54000000 54000000 2.916e+15
vector 195  AODVSim.vehicle[3].manetrouting.wlan[0].radio  radioState:vector  ETV
attr interpolationmode sample-hold
attr title "radio state (enum), vector"
195	612445 15 181 181 11.1 11.1 1 0 0 0 0
vector 194  AODVSim.vehicle[3].manetrouting.wlan[0].radio  channelNo:vector  ETV
attr interpolationmode sample-hold
attr title "channel no, vector"
194	612408 15 181 181 11.1 11.1 1 0 0 0 0
vector 197  AODVSim.vehicle[3].mobility  posx  ETV
197	657915 12139 181 1369 11.1 54.1 431 531.55 1020.05 336711.86178389 274666254.02767
vector 198  AODVSim.vehicle[3].mobility  posy  ETV
198	649225 8690 181 1369 11.1 54.1 431 29.95 92.288300206461 14335.522530183 532037.09868941
vector 165  AODVSim.vehicle[3].udp  sentPk:vector(packetBytes)  ETV
attr interpolationmode none
attr source sentPk
attr title "packets sent, vector(packetBytes)"
165	612237 15 191 191 11.1 11.1 1 8 8 8 64
vector 176  AODVSim.vehicle[3].wlan.mac  rcvdPkFromHL:vector(packetBytes)  ETV
attr interpolationmode none
attr source packetReceivedFromUpper
attr title "packets received from higher layer, vector(packetBytes)"
176	612267 16 194 194 11.1 11.1 1 70 70 70 4900
vector 175  AODVSim.vehicle[3].wlan.mac  sentDownPk:vector(packetBytes)  ETV
attr interpolationmode none
attr source packetSentToLower
attr title "packets sent to lower layer, vector(packetBytes)"
175	612283 20 195 195 11.10005 11.10005 1 70 70 70 4900
vector 199  AODVSim.vehicle[3].mobility  speed  ETV
199	636771 12454 201 1369 11.2 54.1 430 0.25258744191262 13.999583818009 5510.354395679 74437.820087377
vector 200  AODVSim.vehicle[3].mobility  acceleration  ETV
200	623774 12997 202 1369 11.3 54.1 429 -1.2789284134749 2.5878362877294 137.18806172515 399.03379954569
vector 201  AODVSim.vehicle[3].mobility  co2emission  ETV
201	612460 11314 202 1369 11.3 54.1 429 0.973 10.462220091018 1209.9799235539 4922.8453527223
vector 221  AODVSim.vehicle[4].wlan.mgmt  dataQueueLen:vector  ETV
attr interpolationmode sample-hold
attr title "data queue length, vector"
221	670563 15 284 284 17.1 17.1 1 0 0 0 0
vector 236  AODVSim.vehicle[4].manetrouting.wlan[0].mgmt  dataQueueLen:vector  ETV
attr interpolationmode sample-hold
attr title "data queue length, vector"
236	670704 15 284 284 17.1 17.1 1 0 0 0 0
vector 252  AODVSim.vehicle[4].wlan.mac  RadioState  ETV
attr enum "IDLE=0, OFF=4, RECV=1, SLEEP=3, TRANSMIT=2"
attr enumname RadioState
252	721130 108 284 301 17.1 17.100802 6 0 2 4 8
vector 251  AODVSim.vehicle[4].wlan.mac  State  ETV
attr enum "BACKOFF=3, DEFER=1, IDLE=0, RECEIVE=8, WAITACK=4, WAITAIFS=2, WAITCTS=6, WAITMULTICAST=5, WAITSIFS=7"
attr enumname Ieee80211Mac
251	721238 296 284 303 17.1 17.100952 16 0 5 36 136
vector 254  AODVSim.vehicle[4].wlan.mac  "throughput AC0"  ETV
254	721115 15 284 284 17.1 17.1 1 0 0 0 0
vector 258  AODVSim.vehicle[4].manetrouting.wlan[0].mac  RadioState  ETV
attr enum "IDLE=0, OFF=4, RECV=1, SLEEP=3, TRANSMIT=2"
attr enumname RadioState
258	721549 30 284 284 17.1 17.1 2 0 0 0 0
vector 257  AODVSim.vehicle[4].manetrouting.wlan[0].mac  State  ETV
attr enum "BACKOFF=3, DEFER=1, IDLE=0, RECEIVE=8, WAITACK=4, WAITAIFS=2, WAITCTS=6, WAITMULTICAST=5, WAITSIFS=7"
attr enumname Ieee80211Mac
257	721579 30 284 284 17.1 17.1 2 0 0 0 0
vector 260  AODVSim.vehicle[4].manetrouting.wlan[0].mac  "throughput AC0"  ETV
260	721534 15 284 284 17.1 17.1 1 0 0 0 0
vector 227  AODVSim.vehicle[4].wlan.radio  bitrate:vector  ETV
attr interpolationmode sample-hold
attr title "tx bitrate, vector"
attr unit bps
227	670629 21 284 284 17.1 17.1 1 2000000 2000000 2000000 4000000000000
vector 229  AODVSim.vehicle[4].wlan.radio  radioState:vector  ETV
attr interpolationmode sample-hold
attr title "radio state (enum), vector"
229	670650 54 284 301 17.1 17.100802 3 0 2 2 4
vector 228  AODVSim.vehicle[4].wlan.radio  channelNo:vector  ETV
attr interpolationmode sample-hold
attr title "channel no, vector"
228	670614 15 284 284 17.1 17.1 1 0 0 0 0
vector 242  AODVSim.vehicle[4].manetrouting.wlan[0].radio  bitrate:vector  ETV
attr interpolationmode sample-hold
attr title "tx bitrate, vector"
attr unit bps
242	670734 22 284 284 17.1 17.1 1 54000000 54000000 54000000 2.916e+15
vector 244  AODVSim.vehicle[4].manetrouting.wlan[0].radio  radioState:vector  ETV
attr interpolationmode sample-hold
attr title "radio state (enum), vector"
244	670756 15 284 284 17.1 17.1 1 0 0 0 0
vector 243  AODVSim.vehicle[4].manetrouting.wlan[0].radio  channelNo:vector  ETV
attr interpolationmode sample-hold
attr title "channel no, vector"
243	670719 15 284 284 17.1 17.1 1 0 0 0 0
vector 246  AODVSim.vehicle[4].mobility  posx  ETV
246	713278 7837 284 1369 17.1 54.1 371 1520.05 1520.05 563938.55 857214792.92751
vector 247  AODVSim.vehicle[4].mobility  posy  ETV
247	702543 10735 284 1369 17.1 54.1 371 38.15 503.84676740742 92492.720861042 30786916.33517
vector 214  AODVSim.vehicle[4].udp  sentPk:vector(packetBytes)  ETV
attr interpolationmode none
attr source sentPk
attr title "packets sent, vector(packetBytes)"
214	670548 15 294 294 17.1 17.1 1 8 8 8 64
vector 225  AODVSim.vehicle[4].wlan.mac  rcvdPkFromHL:vector(packetBytes)  ETV
attr interpolationmode none
attr source packetReceivedFromUpper
attr title "packets received from higher layer, vector(packetBytes)"
225	670578 16 297 297 17.1 17.1 1 70 70 70 4900
vector 224  AODVSim.vehicle[4].wlan.mac  sentDownPk:vector(packetBytes)  ETV
attr interpolationmode none
attr source packetSentToLower
attr title "packets sent to lower layer, vector(packetBytes)"
224	670594 20 298 298 17.10005 17.10005 1 70 70 70 4900
vector 248  AODVSim.vehicle[4].mobility  speed  ETV
248	691807 10736 304 1369 17.2 54.1 370 0.2518232359637 13.999992125905 4670.8560058269 62753.469456844
vector 249  AODVSim.vehicle[4].mobility  acceleration  ETV
249	680617 11190 305 1369 17.3 54.1 369 -1.2670626038453 2.5704720525194 136.36508516682 361.60117862743
vector 250  AODVSim.vehicle[4].mobility  co2emission  ETV
250	670771 9846 305 1369 17.3 54.1 369 0.973 9.9639350457602 1045.9289891641 4254.2825880653
vector 270  AODVSim.vehicle[5].wlan.mgmt  dataQueueLen:vector  ETV
attr interpolationmode sample-hold
attr title "data queue length, vector"
270	142105 15 318 318 18.1 18.1 1 0 0 0 0
vector 285  AODVSim.vehicle[5].manetrouting.wlan[0].mgmt  dataQueueLen:vector  ETV
attr interpolationmode sample-hold
attr title "data queue length, vector"
285	142246 15 318 318 18.1 18.1 1 0 0 0 0
vector 301  AODVSim.vehicle[5].wlan.mac  RadioState  ETV
attr enum "IDLE=0, OFF=4, RECV=1, SLEEP=3, TRANSMIT=2"
attr enumname RadioState
301	190835 108 318 335 18.1 18.100802 6 0 2 4 8
vector 300  AODVSim.vehicle[5].wlan.mac  State  ETV
attr enum "BACKOFF=3, DEFER=1, IDLE=0, RECEIVE=8, WAITACK=4, WAITAIFS=2, WAITCTS=6, WAITMULTICAST=5, WAITSIFS=7"
attr enumname Ieee80211Mac
300	190943 296 318 337 18.1 18.100852 16 0 5 36 136
vector 303  AODVSim.vehicle[5].wlan.mac  "throughput AC0"  ETV
303	190820 15 318 318 18.1 18.1 1 0 0 0 0
vector 307  AODVSim.vehicle[5].manetrouting.wlan[0].mac  RadioState  ETV
attr enum "IDLE=0, OFF=4, RECV=1, SLEEP=3, TRANSMIT=2"
attr enumname RadioState
307	191254 30 318 318 18.1 18.1 2 0 0 0 0
vector 306  AODVSim.vehicle[5].manetrouting.wlan[0].mac  State  ETV
attr enum "BACKOFF=3, DEFER=1, IDLE=0, RECEIVE=8, WAITACK=4, WAITAIFS=2, WAITCTS=6, WAITMULTICAST=5, WAITSIFS=7"
attr enumname Ieee80211Mac
306	191284 30 318 318 18.1 18.1 2 0 0 0 0
vector 309  AODVSim.vehicle[5].manetrouting.wlan[0].mac  "throughput AC0"  ETV
309	191239 15 318 318 18.1 18.1 1 0 0 0 0
vector 276  AODVSim.vehicle[5].wlan.radio  bitrate:vector  ETV
attr interpolationmode sample-hold
attr title "tx bitrate, vector"
attr unit bps
276	142171 21 318 318 18.1 18.1 1 2000000 2000000 2000000 4000000000000
vector 278  AODVSim.vehicle[5].wlan.radio  radioState:vector  ETV
attr interpolationmode sample-hold
attr title "radio state (enum), vector"
278	142192 54 318 335 18.1 18.100802 3 0 2 2 4
vector 277  AODVSim.vehicle[5].wlan.radio  channelNo:vector  ETV
attr interpolationmode sample-hold
attr title "channel no, vector"
277	142156 15 318 318 18.1 18.1 1 0 0 0 0
vector 291  AODVSim.vehicle[5].manetrouting.wlan[0].radio  bitrate:vector  ETV
attr interpolationmode sample-hold
attr title "tx bitrate, vector"
attr unit bps
291	142276 22 318 318 18.1 18.1 1 54000000 54000000 54000000 2.916e+15
vector 293  AODVSim.vehicle[5].manetrouting.wlan[0].radio  radioState:vector  ETV
attr interpolationmode sample-hold
attr title "radio state (enum), vector"
293	142298 15 318 318 18.1 18.1 1 0 0 0 0
vector 292  AODVSim.vehicle[5].manetrouting.wlan[0].radio  channelNo:vector  ETV
attr interpolationmode sample-hold
attr title "channel no, vector"
292	142261 15 318 318 18.1 18.1 1 0 0 0 0
vector 295  AODVSim.vehicle[5].mobility  posx  ETV
295	183552 7268 318 1369 18.1 54.1 361 520.05 520.05 187738.05 97633172.902499
vector 296  AODVSim.vehicle[5].mobility  posy  ETV
296	173090 10462 318 1369 18.1 54.1 361 38.15 492.59505503423 88382.07245564 28774508.0214
vector 263  AODVSim.vehicle[5].udp  sentPk:vector(packetBytes)  ETV
attr interpolationmode none
attr source sentPk
attr title "packets sent, vector(packetBytes)"
263	142090 15 328 328 18.1 18.1 1 8 8 8 64
vector 274  AODVSim.vehicle[5].wlan.mac  rcvdPkFromHL:vector(packetBytes)  ETV
attr interpolationmode none
attr source packetReceivedFromUpper
attr title "packets received from higher layer, vector(packetBytes)"
274	142120 16 331 331 18.1 18.1 1 70 70 70 4900
vector 273  AODVSim.vehicle[5].wlan.mac  sentDownPk:vector(packetBytes)  ETV
attr interpolationmode none
attr source packetSentToLower
attr title "packets sent to lower layer, vector(packetBytes)"
273	142136 20 332 332 18.10005 18.10005 1 70 70 70 4900
vector 297  AODVSim.vehicle[5].mobility  speed  ETV
297	162643 10447 338 1369 18.2 54.1 360 0.2497930121664 13.999929023788 4558.3445136896 61251.02800763
vector 298  AODVSim.vehicle[5].mobility  acceleration  ETV
298	151766 10877 339 1369 18.3 54.1 359 -1.1951956400415 2.5959705937421 136.44170335114 367.83762309633
vector 299  AODVSim.vehicle[5].mobility  co2emission  ETV
299	142313 9453 339 1369 18.3 54.1 359 0.973 9.8498036301161 1024.9536335483 4217.6734852617
vector 319  AODVSim.vehicle[6].wlan.mgmt  dataQueueLen:vector  ETV
attr interpolationmode sample-hold
attr title "data queue length, vector"
319	38858 15 353 353 19.1 19.1 1 0 0 0 0
vector 334  AODVSim.vehicle[6].manetrouting.wlan[0].mgmt  dataQueueLen:vector  ETV
attr interpolationmode sample-hold
attr title "data queue length, vector"
334	38999 15 353 353 19.1 19.1 1 0 0 0 0
vector 350  AODVSim.vehicle[6].wlan.mac  RadioState  ETV
attr enum "IDLE=0, OFF=4, RECV=1, SLEEP=3, TRANSMIT=2"
attr enumname RadioState
350	61829 108 353 370 19.1 19.100802 6 0 2 4 8
vector 349  AODVSim.vehicle[6].wlan.mac  State  ETV
attr enum "BACKOFF=3, DEFER=1, IDLE=0, RECEIVE=8, WAITACK=4, WAITAIFS=2, WAITCTS=6, WAITMULTICAST=5, WAITSIFS=7"
attr enumname Ieee80211Mac
349	61937 296 353 372 19.1 19.100992 16 0 5 36 136
vector 352  AODVSim.vehicle[6].wlan.mac  "throughput AC0"  ETV
352	61814 15 353 353 19.1 19.1 1 0 0 0 0
vector 356  AODVSim.vehicle[6].manetrouting.wlan[0].mac  RadioState  ETV
attr enum "IDLE=0, OFF=4, RECV=1, SLEEP=3, TRANSMIT=2"
attr enumname RadioState
356	62248 30 353 353 19.1 19.1 2 0 0 0 0
vector 358  AODVSim.vehicle[6].manetrouting.wlan[0].mac  "throughput AC0"  ETV
358	62233 15 353 353 19.1 19.1 1 0 0 0 0
vector 325  AODVSim.vehicle[6].wlan.radio  bitrate:vector  ETV
attr interpolationmode sample-hold
attr title "tx bitrate, vector"
attr unit bps
325	38924 21 353 353 19.1 19.1 1 2000000 2000000 2000000 4000000000000
vector 327  AODVSim.vehicle[6].wlan.radio  radioState:vector  ETV
attr interpolationmode sample-hold
attr title "radio state (enum), vector"
327	38945 54 353 370 19.1 19.100802 3 0 2 2 4
vector 326  AODVSim.vehicle[6].wlan.radio  channelNo:vector  ETV
attr interpolationmode sample-hold
attr title "channel no, vector"
326	38909 15 353 353 19.1 19.1 1 0 0 0 0
vector 340  AODVSim.vehicle[6].manetrouting.wlan[0].radio  bitrate:vector  ETV
attr interpolationmode sample-hold
attr title "tx bitrate, vector"
attr unit bps
340	39029 22 353 353 19.1 19.1 1 54000000 54000000 54000000 2.916e+15
vector 342  AODVSim.vehicle[6].manetrouting.wlan[0].radio  radioState:vector  ETV
attr interpolationmode sample-hold
attr title "radio state (enum), vector"
342	39051 15 353 353 19.1 19.1 1 0 0 0 0
vector 341  AODVSim.vehicle[6].manetrouting.wlan[0].radio  channelNo:vector  ETV
attr interpolationmode sample-hold
attr title "channel no, vector"
341	39014 15 353 353 19.1 19.1 1 0 0 0 0
vector 344  AODVSim.vehicle[6].mobility  posx  ETV
344	56896 4918 353 831 19.1 36.2 172 2031.55 2222.4961484554 362888.04574956 766262249.5026
vector 345  AODVSim.vehicle[6].mobility  posy  ETV
345	53662 3234 353 831 19.1 36.2 172 29.95 29.95 5151.4 154284.43
vector 312  AODVSim.vehicle[6].udp  sentPk:vector(packetBytes)  ETV
attr interpolationmode none
attr source sentPk
attr title "packets sent, vector(packetBytes)"
312	38843 15 363 363 19.1 19.1 1 8 8 8 64
vector 323  AODVSim.vehicle[6].wlan.mac  rcvdPkFromHL:vector(packetBytes)  ETV
attr interpolationmode none
attr source packetReceivedFromUpper
attr title "packets received from higher layer, vector(packetBytes)"
323	38873 16 366 366 19.1 19.1 1 70 70 70 4900
vector 322  AODVSim.vehicle[6].wlan.mac  sentDownPk:vector(packetBytes)  ETV
attr interpolationmode none
attr source packetSentToLower
attr title "packets sent to lower layer, vector(packetBytes)"
322	38889 20 367 367 19.10005 19.10005 1 70 70 70 4900
vector 346  AODVSim.vehicle[6].mobility  speed  ETV
346	48750 4912 373 831 19.2 36.2 171 0.25681022623507 13.999906795102 1923.4446324475 24545.025334922
vector 347  AODVSim.vehicle[6].mobility  acceleration  ETV
347	43703 5047 374 831 19.3 36.2 170 -1.2554847096326 2.5749092141865 137.26337667385 308.60604200059
vector 348  AODVSim.vehicle[6].mobility  co2emission  ETV