version 2
run General-0-20150808-19:00:56-6892
attr configname General
attr datetime 20150808-19:00:56
attr experiment General
attr inifile omnetpp.ini
attr iterationvars ""
attr iterationvars2 $repetition=0
attr measurement ""
attr network ""
attr processid 6892
attr repetition 0
attr replication #0
attr resultdir results
attr runnumber 0
attr seedset 0

vector 5  AODVVANET.rsu[0].wlan.mgmt  dataQueueLen:vector  ETV
attr interpolationmode  sample-hold
attr title  "data queue length, vector"
vector 16  AODVVANET.rsu[0].wlan.mac  RadioState  ETV
attr enum  "IDLE=0, OFF=4, RECV=1, SLEEP=3, TRANSMIT=2"
attr enumname  RadioState
vector 15  AODVVANET.rsu[0].wlan.mac  State  ETV
attr enum  "BACKOFF=3, DEFER=1, IDLE=0, RECEIVE=8, WAITACK=4, WAITAIFS=2, WAITCTS=6, WAITMULTICAST=5, WAITSIFS=7"
attr enumname  Ieee80211Mac
vector 11  AODVVANET.rsu[0].wlan.radio  bitrate:vector  ETV
attr interpolationmode  sample-hold
attr title  "tx bitrate, vector"
attr unit  bps
vector 13  AODVVANET.rsu[0].wlan.radio  radioState:vector  ETV
attr interpolationmode  sample-hold
attr title  "radio state (enum), vector"
vector 12  AODVVANET.rsu[0].wlan.radio  channelNo:vector  ETV
attr interpolationmode  sample-hold
attr title  "channel no, vector"
vector 2  AODVVANET.rsu[0].wlan.agent  sentRequest:vector  ETV
attr title  "sent requests, vector"
vector 9  AODVVANET.rsu[0].wlan.mac  rcvdPkFromHL:vector(packetBytes)  ETV
attr interpolationmode  none
attr source  packetReceivedFromUpper
attr title  "packets received from higher layer, vector(packetBytes)"
vector 18  AODVVANET.rsu[0].wlan.mac  "throughput AC0"  ETV
vector 8  AODVVANET.rsu[0].wlan.mac  sentDownPk:vector(packetBytes)  ETV
attr interpolationmode  none
attr source  packetSentToLower
attr title  "packets sent to lower layer, vector(packetBytes)"
vector 4  AODVVANET.rsu[0].wlan.agent  dropConfirm:vector  ETV
attr title  "dropped confirms, vector"
vector 31  AODVVANET.host[0].wlan.mgmt  dataQueueLen:vector  ETV
attr interpolationmode  sample-hold
attr title  "data queue length, vector"
vector 49  AODVVANET.host[0].manetrouting.wlan[0].mgmt  dataQueueLen:vector  ETV
attr interpolationmode  sample-hold
attr title  "data queue length, vector"
vector 64  AODVVANET.host[0].wlan.mac  RadioState  ETV
attr enum  "IDLE=0, OFF=4, RECV=1, SLEEP=3, TRANSMIT=2"
attr enumname  RadioState
vector 63  AODVVANET.host[0].wlan.mac  State  ETV
attr enum  "BACKOFF=3, DEFER=1, IDLE=0, RECEIVE=8, WAITACK=4, WAITAIFS=2, WAITCTS=6, WAITMULTICAST=5, WAITSIFS=7"
attr enumname  Ieee80211Mac
vector 66  AODVVANET.host[0].wlan.mac  "throughput AC0"  ETV
vector 70  AODVVANET.host[0].manetrouting.wlan[0].mac  RadioState  ETV
attr enum  "IDLE=0, OFF=4, RECV=1, SLEEP=3, TRANSMIT=2"
attr enumname  RadioState
vector 69  AODVVANET.host[0].manetrouting.wlan[0].mac  State  ETV
attr enum  "BACKOFF=3, DEFER=1, IDLE=0, RECEIVE=8, WAITACK=4, WAITAIFS=2, WAITCTS=6, WAITMULTICAST=5, WAITSIFS=7"
attr enumname  Ieee80211Mac
vector 72  AODVVANET.host[0].manetrouting.wlan[0].mac  "throughput AC0"  ETV
vector 37  AODVVANET.host[0].wlan.radio  bitrate:vector  ETV
attr interpolationmode  sample-hold
attr title  "tx bitrate, vector"
attr unit  bps
vector 39  AODVVANET.host[0].wlan.radio  radioState:vector  ETV
attr interpolationmode  sample-hold
attr title  "radio state (enum), vector"
vector 38  AODVVANET.host[0].wlan.radio  channelNo:vector  ETV
attr interpolationmode  sample-hold
attr title  "channel no, vector"
vector 55  AODVVANET.host[0].manetrouting.wlan[0].radio  bitrate:vector  ETV
attr interpolationmode  sample-hold
attr title  "tx bitrate, vector"
attr unit  bps
vector 57  AODVVANET.host[0].manetrouting.wlan[0].radio  radioState:vector  ETV
attr interpolationmode  sample-hold
attr title  "radio state (enum), vector"
vector 56  AODVVANET.host[0].manetrouting.wlan[0].radio  channelNo:vector  ETV
attr interpolationmode  sample-hold
attr title  "channel no, vector"
vector 59  AODVVANET.host[0].mobility  posx  ETV
vector 60  AODVVANET.host[0].mobility  posy  ETV
vector 68  AODVVANET.host[0].wlan.radio  snirVector  ETV
vector 74  AODVVANET.host[0].manetrouting.wlan[0].radio  snirVector  ETV
vector 36  AODVVANET.host[0].wlan.mac  rcvdPkFromLL:vector(packetBytes)  ETV
attr interpolationmode  none
attr source  packetReceivedFromLower
attr title  "packets received from lower layer, vector(packetBytes)"
vector 33  AODVVANET.host[0].wlan.mac  passedUpPk:vector(packetBytes)  ETV
attr interpolationmode  none
attr source  packetSentToUpper
attr title  "packets passed to higher layer, vector(packetBytes)"
vector 54  AODVVANET.host[0].manetrouting.wlan[0].mac  rcvdPkFromLL:vector(packetBytes)  ETV
attr interpolationmode  none
attr source  packetReceivedFromLower
attr title  "packets received from lower layer, vector(packetBytes)"
vector 51  AODVVANET.host[0].manetrouting.wlan[0].mac  passedUpPk:vector(packetBytes)  ETV
attr interpolationmode  none
attr source  packetSentToUpper
attr title  "packets passed to higher layer, vector(packetBytes)"
vector 46  AODVVANET.host[0].manetrouting.wlan[0].agent  sentRequest:vector  ETV
attr title  "sent requests, vector"
vector 53  AODVVANET.host[0].manetrouting.wlan[0].mac  rcvdPkFromHL:vector(packetBytes)  ETV
attr interpolationmode  none
attr source  packetReceivedFromUpper
attr title  "packets received from higher layer, vector(packetBytes)"
vector 52  AODVVANET.host[0].manetrouting.wlan[0].mac  sentDownPk:vector(packetBytes)  ETV
attr interpolationmode  none
attr source  packetSentToLower
attr title  "packets sent to lower layer, vector(packetBytes)"
vector 20  AODVVANET.rsu[0].wlan.radio  snirVector  ETV
vector 10  AODVVANET.rsu[0].wlan.mac  rcvdPkFromLL:vector(packetBytes)  ETV
attr interpolationmode  none
attr source  packetReceivedFromLower
attr title  "packets received from lower layer, vector(packetBytes)"
vector 7  AODVVANET.rsu[0].wlan.mac  passedUpPk:vector(packetBytes)  ETV
attr interpolationmode  none
attr source  packetSentToUpper
attr title  "packets passed to higher layer, vector(packetBytes)"
vector 28  AODVVANET.host[0].wlan.agent  sentRequest:vector  ETV
attr title  "sent requests, vector"
vector 35  AODVVANET.host[0].wlan.mac  rcvdPkFromHL:vector(packetBytes)  ETV
attr interpolationmode  none
attr source  packetReceivedFromUpper
attr title  "packets received from higher layer, vector(packetBytes)"
vector 34  AODVVANET.host[0].wlan.mac  sentDownPk:vector(packetBytes)  ETV
attr interpolationmode  none
attr source  packetSentToLower
attr title  "packets sent to lower layer, vector(packetBytes)"
vector 48  AODVVANET.host[0].manetrouting.wlan[0].agent  dropConfirm:vector  ETV
attr title  "dropped confirms, vector"
vector 30  AODVVANET.host[0].wlan.agent  dropConfirm:vector  ETV
attr title  "dropped confirms, vector"
vector 61  AODVVANET.host[0].mobility  speed  ETV
vector 62  AODVVANET.host[0].mobility  acceleration  ETV
vector 85  AODVVANET.host[1].wlan.mgmt  dataQueueLen:vector  ETV
attr interpolationmode  sample-hold
attr title  "data queue length, vector"
vector 103  AODVVANET.host[1].manetrouting.wlan[0].mgmt  dataQueueLen:vector  ETV
attr interpolationmode  sample-hold
attr title  "data queue length, vector"
vector 118  AODVVANET.host[1].wlan.mac  RadioState  ETV
attr enum  "IDLE=0, OFF=4, RECV=1, SLEEP=3, TRANSMIT=2"
attr enumname  RadioState
vector 117  AODVVANET.host[1].wlan.mac  State  ETV
attr enum  "BACKOFF=3, DEFER=1, IDLE=0, RECEIVE=8, WAITACK=4, WAITAIFS=2, WAITCTS=6, WAITMULTICAST=5, WAITSIFS=7"
attr enumname  Ieee80211Mac
vector 120  AODVVANET.host[1].wlan.mac  "throughput AC0"  ETV
vector 124  AODVVANET.host[1].manetrouting.wlan[0].mac  RadioState  ETV
attr enum  "IDLE=0, OFF=4, RECV=1, SLEEP=3, TRANSMIT=2"
attr enumname  RadioState
vector 123  AODVVANET.host[1].manetrouting.wlan[0].mac  State  ETV
attr enum  "BACKOFF=3, DEFER=1, IDLE=0, RECEIVE=8, WAITACK=4, WAITAIFS=2, WAITCTS=6, WAITMULTICAST=5, WAITSIFS=7"
attr enumname  Ieee80211Mac
vector 126  AODVVANET.host[1].manetrouting.wlan[0].mac  "throughput AC0"  ETV
vector 91  AODVVANET.host[1].wlan.radio  bitrate:vector  ETV
attr interpolationmode  sample-hold
attr title  "tx bitrate, vector"
attr unit  bps
vector 93  AODVVANET.host[1].wlan.radio  radioState:vector  ETV
attr interpolationmode  sample-hold
attr title  "radio state (enum), vector"
vector 92  AODVVANET.host[1].wlan.radio  channelNo:vector  ETV
attr interpolationmode  sample-hold
attr title  "channel no, vector"
vector 109  AODVVANET.host[1].manetrouting.wlan[0].radio  bitrate:vector  ETV
attr interpolationmode  sample-hold
attr title  "tx bitrate, vector"
attr unit  bps
vector 111  AODVVANET.host[1].manetrouting.wlan[0].radio  radioState:vector  ETV
attr interpolationmode  sample-hold
attr title  "radio state (enum), vector"
vector 110  AODVVANET.host[1].manetrouting.wlan[0].radio  channelNo:vector  ETV
attr interpolationmode  sample-hold
attr title  "channel no, vector"
vector 113  AODVVANET.host[1].mobility  posx  ETV
vector 114  AODVVANET.host[1].mobility  posy  ETV
vector 82  AODVVANET.host[1].wlan.agent  sentRequest:vector  ETV
attr title  "sent requests, vector"
vector 89  AODVVANET.host[1].wlan.mac  rcvdPkFromHL:vector(packetBytes)  ETV
attr interpolationmode  none
attr source  packetReceivedFromUpper
attr title  "packets received from higher layer, vector(packetBytes)"
vector 88  AODVVANET.host[1].wlan.mac  sentDownPk:vector(packetBytes)  ETV
attr interpolationmode  none
attr source  packetSentToLower
attr title  "packets sent to lower layer, vector(packetBytes)"
vector 128  AODVVANET.host[1].manetrouting.wlan[0].radio  snirVector  ETV
vector 108  AODVVANET.host[1].manetrouting.wlan[0].mac  rcvdPkFromLL:vector(packetBytes)  ETV
attr interpolationmode  none
attr source  packetReceivedFromLower
attr title  "packets received from lower layer, vector(packetBytes)"
vector 105  AODVVANET.host[1].manetrouting.wlan[0].mac  passedUpPk:vector(packetBytes)  ETV
attr interpolationmode  none
attr source  packetSentToUpper
attr title  "packets passed to higher layer, vector(packetBytes)"
vector 122  AODVVANET.host[1].wlan.radio  snirVector  ETV
vector 90  AODVVANET.host[1].wlan.mac  rcvdPkFromLL:vector(packetBytes)  ETV
attr interpolationmode  none
attr source  packetReceivedFromLower
attr title  "packets received from lower layer, vector(packetBytes)"
vector 87  AODVVANET.host[1].wlan.mac  passedUpPk:vector(packetBytes)  ETV
attr interpolationmode  none
attr source  packetSentToUpper
attr title  "packets passed to higher layer, vector(packetBytes)"
vector 100  AODVVANET.host[1].manetrouting.wlan[0].agent  sentRequest:vector  ETV
attr title  "sent requests, vector"
vector 107  AODVVANET.host[1].manetrouting.wlan[0].mac  rcvdPkFromHL:vector(packetBytes)  ETV
attr interpolationmode  none
attr source  packetReceivedFromUpper
attr title  "packets received from higher layer, vector(packetBytes)"
vector 106  AODVVANET.host[1].manetrouting.wlan[0].mac  sentDownPk:vector(packetBytes)  ETV
attr interpolationmode  none
attr source  packetSentToLower
attr title  "packets sent to lower layer, vector(packetBytes)"
vector 84  AODVVANET.host[1].wlan.agent  dropConfirm:vector  ETV
attr title  "dropped confirms, vector"
vector 102  AODVVANET.host[1].manetrouting.wlan[0].agent  dropConfirm:vector  ETV
attr title  "dropped confirms, vector"
vector 139  AODVVANET.host[2].wlan.mgmt  dataQueueLen:vector  ETV
attr interpolationmode  sample-hold
attr title  "data queue length, vector"
vector 157  AODVVANET.host[2].manetrouting.wlan[0].mgmt  dataQueueLen:vector  ETV
attr interpolationmode  sample-hold
attr title  "data queue length, vector"
vector 172  AODVVANET.host[2].wlan.mac  RadioState  ETV
attr enum  "IDLE=0, OFF=4, RECV=1, SLEEP=3, TRANSMIT=2"
attr enumname  RadioState
vector 171  AODVVANET.host[2].wlan.mac  State  ETV
attr enum  "BACKOFF=3, DEFER=1, IDLE=0, RECEIVE=8, WAITACK=4, WAITAIFS=2, WAITCTS=6, WAITMULTICAST=5, WAITSIFS=7"
attr enumname  Ieee80211Mac
vector 174  AODVVANET.host[2].wlan.mac  "throughput AC0"  ETV
vector 178  AODVVANET.host[2].manetrouting.wlan[0].mac  RadioState  ETV
attr enum  "IDLE=0, OFF=4, RECV=1, SLEEP=3, TRANSMIT=2"
attr enumname  RadioState
vector 177  AODVVANET.host[2].manetrouting.wlan[0].mac  State  ETV
attr enum  "BACKOFF=3, DEFER=1, IDLE=0, RECEIVE=8, WAITACK=4, WAITAIFS=2, WAITCTS=6, WAITMULTICAST=5, WAITSIFS=7"
attr enumname  Ieee80211Mac
vector 180  AODVVANET.host[2].manetrouting.wlan[0].mac  "throughput AC0"  ETV
vector 145  AODVVANET.host[2].wlan.radio  bitrate:vector  ETV
attr interpolationmode  sample-hold
attr title  "tx bitrate, vector"
attr unit  bps
vector 147  AODVVANET.host[2].wlan.radio  radioState:vector  ETV
attr interpolationmode  sample-hold
attr title  "radio state (enum), vector"
vector 146  AODVVANET.host[2].wlan.radio  channelNo:vector  ETV
attr interpolationmode  sample-hold
attr title  "channel no, vector"
vector 163  AODVVANET.host[2].manetrouting.wlan[0].radio  bitrate:vector  ETV
attr interpolationmode  sample-hold
attr title  "tx bitrate, vector"
attr unit  bps
vector 165  AODVVANET.host[2].manetrouting.wlan[0].radio  radioState:vector  ETV
attr interpolationmode  sample-hold
attr title  "radio state (enum), vector"
vector 164  AODVVANET.host[2].manetrouting.wlan[0].radio  channelNo:vector  ETV
attr interpolationmode  sample-hold
attr title  "channel no, vector"
vector 167  AODVVANET.host[2].mobility  posx  ETV
vector 168  AODVVANET.host[2].mobility  posy  ETV
vector 115  AODVVANET.host[1].mobility  speed  ETV
vector 136  AODVVANET.host[2].wlan.agent  sentRequest:vector  ETV
attr title  "sent requests, vector"
vector 176  AODVVANET.host[2].wlan.radio  snirVector  ETV
vector 182  AODVVANET.host[2].manetrouting.wlan[0].radio  snirVector  ETV
vector 144  AODVVANET.host[2].wlan.mac  rcvdPkFromLL:vector(packetBytes)  ETV
attr interpolationmode  none
attr source  packetReceivedFromLower
attr title  "packets received from lower layer, vector(packetBytes)"
vector 141  AODVVANET.host[2].wlan.mac  passedUpPk:vector(packetBytes)  ETV
attr interpolationmode  none
attr source  packetSentToUpper
attr title  "packets passed to higher layer, vector(packetBytes)"
vector 162  AODVVANET.host[2].manetrouting.wlan[0].mac  rcvdPkFromLL:vector(packetBytes)  ETV
attr interpolationmode  none
attr source  packetReceivedFromLower
attr title  "packets received from lower layer, vector(packetBytes)"
vector 159  AODVVANET.host[2].manetrouting.wlan[0].mac  passedUpPk:vector(packetBytes)  ETV
attr interpolationmode  none
attr source  packetSentToUpper
attr title  "packets passed to higher layer, vector(packetBytes)"
vector 143  AODVVANET.host[2].wlan.mac  rcvdPkFromHL:vector(packetBytes)  ETV
attr interpolationmode  none
attr source  packetReceivedFromUpper
attr title  "packets received from higher layer, vector(packetBytes)"
vector 142  AODVVANET.host[2].wlan.mac  sentDownPk:vector(packetBytes)  ETV
attr interpolationmode  none
attr source  packetSentToLower
attr title  "packets sent to lower layer, vector(packetBytes)"
vector 154  AODVVANET.host[2].manetrouting.wlan[0].agent  sentRequest:vector  ETV
attr title  "sent requests, vector"
vector 161  AODVVANET.host[2].manetrouting.wlan[0].mac  rcvdPkFromHL:vector(packetBytes)  ETV
attr interpolationmode  none
attr source  packetReceivedFromUpper
attr title  "packets received from higher layer, vector(packetBytes)"
vector 160  AODVVANET.host[2].manetrouting.wlan[0].mac  sentDownPk:vector(packetBytes)  ETV
attr interpolationmode  none
attr source  packetSentToLower
attr title  "packets sent to lower layer, vector(packetBytes)"
vector 138  AODVVANET.host[2].wlan.agent  dropConfirm:vector  ETV
attr title  "dropped confirms, vector"
vector 156  AODVVANET.host[2].manetrouting.wlan[0].agent  dropConfirm:vector  ETV
attr title  "dropped confirms, vector"
2	4	0.180829011113	1
2	17	0.430829011113	1
2	30	0.680829011113	1
2	43	0.930829011113	1
2	57	1.180829011113	1
2	70	1.430829011113	1
2	83	1.680829011113	1
2	96	1.930829011113	1
2	110	2.180829011113	1
2	123	2.430829011113	1
2	136	2.680829011113	1
2	149	2.930829011113	1
2	163	3.180829011113	1
2	176	3.430829011113	1
2	189	3.680829011113	1
2	202	3.930829011113	1
2	216	4.180829011113	1
2	229	4.430829011113	1
2	242	4.680829011113	1
2	255	4.930829011113	1
2	269	5.180829011113	1
2	282	5.430829011113	1
2	295	5.680829011113	1
2	308	5.930829011113	1
2	322	6.180829011113	1
2	335	6.430829011113	1
2	348	6.680829011113	1
2	361	6.930829011113	1
2	375	7.180829011113	1
2	388	7.430829011113	1
2	401	7.680829011113	1
2	414	7.930829011113	1
2	449	8.180829011113	1
2	518	8.580829011113	1
2	585	8.980829011113	1
2	653	9.380829011113	1
2	720	9.780829011113	1
2	788	10.180829011113	1
2	854	10.580829011113	1
2	921	10.980829011113	1
2	989	11.380829011113	1
2	1056	11.780829011113	1
2	1137	12.180829011113	1
2	1287	12.580829011113	1
2	1438	12.980829011113	1
2	1714	13.380829011113	1
2	1981	13.780829011113	1
4	17	0.430829011113	1
4	30	0.680829011113	1
4	43	0.930829011113	1
4	57	1.180829011113	1
4	70	1.430829011113	1
4	83	1.680829011113	1
4	96	1.930829011113	1
4	110	2.180829011113	1
4	123	2.430829011113	1
4	136	2.680829011113	1
4	149	2.930829011113	1
4	163	3.180829011113	1
4	176	3.430829011113	1
4	189	3.680829011113	1
4	202	3.930829011113	1
4	216	4.180829011113	1
4	229	4.430829011113	1
4	242	4.680829011113	1
4	255	4.930829011113	1
4	269	5.180829011113	1
4	282	5.430829011113	1
4	295	5.680829011113	1
4	308	5.930829011113	1
4	322	6.180829011113	1
4	335	6.430829011113	1
4	348	6.680829011113	1
4	361	6.930829011113	1
4	375	7.180829011113	1
4	388	7.430829011113	1
4	401	7.680829011113	1
4	414	7.930829011113	1
4	449	8.180829011113	1
4	518	8.580829011113	1
4	585	8.980829011113	1
4	653	9.380829011113	1
4	720	9.780829011113	1
4	788	10.180829011113	1
4	854	10.580829011113	1
4	921	10.980829011113	1
4	989	11.380829011113	1
4	1056	11.780829011113	1
4	1137	12.180829011113	1
4	1287	12.580829011113	1
4	1438	12.980829011113	1
4	1714	13.380829011113	1
4	1981	13.780829011113	1
5	0	0	0
7	465	8.242645772165	40
7	502	8.394148863028	40
7	534	8.642645772165	40
7	550	8.644148863028	40
7	603	9.042645772165	40
7	619	9.044148863028	40
7	669	9.442645772165	40
7	685	9.444148863028	40
7	736	9.842645772165	40
7	752	9.844148863028	40
7	804	10.242645772165	40
7	820	10.244148863028	40
7	871	10.642645772165	40
7	887	10.644148863028	40
7	939	11.042645772165	40
7	955	11.044148863028	40
7	1005	11.442645772165	40
7	1021	11.444148863028	40
7	1072	11.842645772165	40
7	1088	11.844148863028	40
7	1161	12.231672945959	40
7	1185	12.242645772165	40
7	1209	12.244148863028	40
7	1262	12.371267933622	40
7	1311	12.631672945959	40
7	1335	12.642645772165	40
7	1359	12.644148863028	40
7	1412	12.771267933622	40
7	1486	13.031672945959	40
7	1518	13.042645772165	40
7	1550	13.044148863028	40
7	1619	13.112090987819	40
7	1655	13.171267933622	40
7	1692	13.232143814177	40
7	1752	13.431672945959	40
7	1784	13.442645772165	40
7	1816	13.444148863028	40
7	1885	13.512090987819	40
7	1922	13.571267933622	40
7	1958	13.632143814177	40
7	2019	13.831672945959	40
7	2052	13.842645772165	40
8	10	0.280879011113	40
8	23	0.530879011113	40
8	36	0.780879011113	40
8	50	1.030879011113	40
8	63	1.280879011113	40
8	76	1.530879011113	40
8	89	1.780879011113	40
8	103	2.030879011113	40
8	116	2.280879011113	40
8	129	2.530879011113	40
8	142	2.780879011113	40
8	156	3.030879011113	40
8	169	3.280879011113	40
8	182	3.530879011113	40
8	195	3.780879011113	40
8	209	4.030879011113	40
8	222	4.280879011113	40
8	235	4.530879011113	40
8	248	4.780879011113	40
8	262	5.030879011113	40
8	275	5.280879011113	40
8	288	5.530879011113	40
8	301	5.780879011113	40
8	315	6.030879011113	40
8	328	6.280879011113	40
8	341	6.530879011113	40
8	354	6.780879011113	40
8	368	7.030879011113	40
8	381	7.280879011113	40
8	394	7.530879011113	40
8	407	7.780879011113	40
8	430	8.030879011113	40
8	471	8.280879011113	40
8	556	8.680879011113	40
8	625	9.080879011113	40
8	691	9.480879011113	40
8	758	9.880879011113	40
8	826	10.280879011113	40
8	893	10.680879011113	40
8	961	11.080879011113	40
8	1027	11.480879011113	40
8	1094	11.880879011113	40
8	1219	12.280879011113	40
8	1370	12.680879011113	40
8	1561	13.080879011113	40
8	1827	13.480879011113	40
9	9	0.280829011113	40
9	22	0.530829011113	40
9	35	0.780829011113	40
9	49	1.030829011113	40
9	62	1.280829011113	40
9	75	1.530829011113	40
9	88	1.780829011113	40
9	102	2.030829011113	40
9	115	2.280829011113	40
9	128	2.530829011113	40
9	141	2.780829011113	40
9	155	3.030829011113	40
9	168	3.280829011113	40
9	181	3.530829011113	40
9	194	3.780829011113	40
9	208	4.030829011113	40
9	221	4.280829011113	40
9	234	4.530829011113	40
9	247	4.780829011113	40
9	261	5.030829011113	40
9	274	5.280829011113	40
9	287	5.530829011113	40
9	300	5.780829011113	40
9	314	6.030829011113	40
9	327	6.280829011113	40
9	340	6.530829011113	40
9	353	6.780829011113	40
9	367	7.030829011113	40
9	380	7.280829011113	40
9	393	7.530829011113	40
9	406	7.780829011113	40
9	429	8.030829011113	40
9	470	8.280829011113	40
9	555	8.680829011113	40
9	624	9.080829011113	40
9	690	9.480829011113	40
9	757	9.880829011113	40
9	825	10.280829011113	40
9	892	10.680829011113	40
9	960	11.080829011113	40
9	1026	11.480829011113	40
9	1093	11.880829011113	40
9	1218	12.280829011113	40
9	1369	12.680829011113	40
9	1560	13.080829011113	40
9	1826	13.480829011113	40
10	465	8.242645772165	40
10	502	8.394148863028	40
10	534	8.642645772165	40
10	550	8.644148863028	40
10	603	9.042645772165	40
10	619	9.044148863028	40
10	669	9.442645772165	40
10	685	9.444148863028	40
10	736	9.842645772165	40
10	752	9.844148863028	40
10	804	10.242645772165	40
10	820	10.244148863028	40
10	871	10.642645772165	40
10	887	10.644148863028	40
10	939	11.042645772165	40
10	955	11.044148863028	40
10	1005	11.442645772165	40
10	1021	11.444148863028	40
10	1072	11.842645772165	40
10	1088	11.844148863028	40
10	1161	12.231672945959	40
10	1185	12.242645772165	40
10	1209	12.244148863028	40
10	1262	12.371267933622	40
10	1311	12.631672945959	40
10	1335	12.642645772165	40
10	1359	12.644148863028	40
10	1412	12.771267933622	40
10	1486	13.031672945959	40
10	1518	13.042645772165	40
10	1550	13.044148863028	40
10	1619	13.112090987819	40
10	1655	13.171267933622	40
10	1692	13.232143814177	40
10	1752	13.431672945959	40
10	1784	13.442645772165	40
10	1816	13.444148863028	40
10	1885	13.512090987819	40
10	1922	13.571267933622	40
10	1958	13.632143814177	40
10	2019	13.831672945959	40
10	2052	13.842645772165	40
11	0	0	54000000
12	0	0	0
13	0	0	0
13	11	0.280879011113	2
13	13	0.281391011113	0
13	24	0.530879011113	2
13	26	0.531391011113	0
13	37	0.780879011113	2
13	39	0.781391011113	0
13	51	1.030879011113	2
13	53	1.031391011113	0
13	64	1.280879011113	2
13	66	1.281391011113	0
13	77	1.530879011113	2
13	79	1.531391011113	0
13	90	1.780879011113	2
13	92	1.781391011113	0
13	104	2.030879011113	2
13	106	2.031391011113	0
13	117	2.280879011113	2
13	119	2.281391011113	0
13	130	2.530879011113	2
13	132	2.531391011113	0
13	143	2.780879011113	2
13	145	2.781391011113	0
13	157	3.030879011113	2
13	159	3.031391011113	0
13	170	3.280879011113	2
13	172	3.281391011113	0
13	183	3.530879011113	2
13	185	3.531391011113	0
13	196	3.780879011113	2
13	198	3.781391011113	0
13	210	4.030879011113	2
13	212	4.031391011113	0
13	223	4.280879011113	2
13	225	4.281391011113	0
13	236	4.530879011113	2
13	238	4.531391011113	0
13	249	4.780879011113	2
13	251	4.781391011113	0
13	263	5.030879011113	2
13	265	5.031391011113	0
13	276	5.280879011113	2
13	278	5.281391011113	0
13	289	5.530879011113	2
13	291	5.531391011113	0
13	302	5.780879011113	2
13	304	5.781391011113	0
13	316	6.030879011113	2
13	318	6.031391011113	0
13	329	6.280879011113	2
13	331	6.281391011113	0
13	342	6.530879011113	2
13	344	6.531391011113	0
13	355	6.780879011113	2
13	357	6.781391011113	0
13	369	7.030879011113	2
13	371	7.031391011113	0
13	382	7.280879011113	2
13	384	7.281391011113	0
13	395	7.530879011113	2
13	397	7.531391011113	0
13	408	7.780879011113	2
13	410	7.781391011113	0
13	431	8.030879011113	2
13	435	8.031391011113	0
13	458	8.242133772165	1
13	464	8.242645772165	0
13	472	8.280879011113	2
13	476	8.281391011113	0
13	495	8.393636863028	1
13	501	8.394148863028	0
13	527	8.642133772165	1
13	533	8.642645772165	0
13	543	8.643636863028	1
13	549	8.644148863028	0
13	557	8.680879011113	2
13	561	8.681391011113	0
13	596	9.042133772165	1
13	602	9.042645772165	0
13	612	9.043636863028	1
13	618	9.044148863028	0
13	626	9.080879011113	2
13	630	9.081391011113	0
13	662	9.442133772165	1
13	668	9.442645772165	0
13	678	9.443636863028	1
13	684	9.444148863028	0
13	692	9.480879011113	2
13	696	9.481391011113	0
13	729	9.842133772165	1
13	735	9.842645772165	0
13	745	9.843636863028	1
13	751	9.844148863028	0
13	759	9.880879011113	2
13	763	9.881391011113	0
13	797	10.242133772165	1
13	803	10.242645772165	0
13	813	10.243636863028	1
13	819	10.244148863028	0
13	827	10.280879011113	2
13	831	10.281391011113	0
13	864	10.642133772165	1
13	870	10.642645772165	0
13	880	10.643636863028	1
13	886	10.644148863028	0
13	894	10.680879011113	2
13	898	10.681391011113	0
13	932	11.042133772165	1
13	938	11.042645772165	0
13	948	11.043636863028	1
13	954	11.044148863028	0
13	962	11.080879011113	2
13	966	11.081391011113	0
13	998	11.442133772165	1
13	1004	11.442645772165	0
13	1014	11.443636863028	1
13	1020	11.444148863028	0
13	1028	11.480879011113	2
13	1032	11.481391011113	0
13	1065	11.842133772165	1
13	1071	11.842645772165	0
13	1081	11.843636863028	1
13	1087	11.844148863028	0
13	1095	11.880879011113	2
13	1099	11.881391011113	0
13	1148	12.231160945959	1
13	1160	12.231672945959	0
13	1172	12.242133772165	1
13	1184	12.242645772165	0
13	1196	12.243636863028	1
13	1208	12.244148863028	0
13	1220	12.280879011113	2
13	1226	12.281391011113	0
13	1249	12.370755933622	1
13	1261	12.371267933622	0
13	1298	12.631160945959	1
13	1310	12.631672945959	0
13	1322	12.642133772165	1
13	1334	12.642645772165	0
13	1346	12.643636863028	1
13	1358	12.644148863028	0
13	1371	12.680879011113	2
13	1377	12.681391011113	0
13	1399	12.770755933622	1
13	1411	12.771267933622	0
13	1467	13.031160945959	1
13	1485	13.031672945959	0
13	1499	13.042133772165	1
13	1517	13.042645772165	0
13	1531	13.043636863028	1
13	1549	13.044148863028	0
13	1562	13.080879011113	2
13	1570	13.081391011113	0
13	1600	13.111578987819	1
13	1618	13.112090987819	0
13	1636	13.170755933622	1
13	1654	13.171267933622	0
13	1673	13.231631814177	1
13	1691	13.232143814177	0
13	1733	13.431160945959	1
13	1751	13.431672945959	0
13	1765	13.442133772165	1
13	1783	13.442645772165	0
13	1797	13.443636863028	1
13	1815	13.444148863028	0
13	1828	13.480879011113	2
13	1836	13.481391011113	0
13	1866	13.511578987819	1
13	1884	13.512090987819	0
13	1903	13.570755933622	1
13	1921	13.571267933622	0
13	1939	13.631631814177	1
13	1957	13.632143814177	0
13	2000	13.831160945959	1
13	2018	13.831672945959	0
13	2033	13.842133772165	1
13	2051	13.842645772165	0
13	2065	13.843636863028	1
15	0	0	0
15	0	0	0
15	9	0.280829011113	0
15	9	0.280829011113	2
15	10	0.280879011113	2
15	10	0.280879011113	5
15	11	0.280879011113	5
15	11	0.280879011113	5
15	12	0.281391011113	5
15	12	0.281391011113	1
15	13	0.281391011113	1
15	13	0.281391011113	2
15	14	0.281441011113	2
15	14	0.281441011113	3
15	15	0.281981011113	3
15	15	0.281981011113	0
15	22	0.530829011113	0
15	22	0.530829011113	2
15	23	0.530879011113	2
15	23	0.530879011113	5
15	24	0.530879011113	5
15	24	0.530879011113	5
15	25	0.531391011113	5
15	25	0.531391011113	1
15	26	0.531391011113	1
15	26	0.531391011113	2
15	27	0.531441011113	2
15	27	0.531441011113	3
15	28	0.531501011113	3
15	28	0.531501011113	0
15	35	0.780829011113	0
15	35	0.780829011113	2
15	36	0.780879011113	2
15	36	0.780879011113	5
15	37	0.780879011113	5
15	37	0.780879011113	5
15	38	0.781391011113	5
15	38	0.781391011113	1
15	39	0.781391011113	1
15	39	0.781391011113	2
15	40	0.781441011113	2
15	40	0.781441011113	3
15	41	0.781581011113	3
15	41	0.781581011113	0
15	49	1.030829011113	0
15	49	1.030829011113	2
15	50	1.030879011113	2
15	50	1.030879011113	5
15	51	1.030879011113	5
15	51	1.030879011113	5
15	52	1.031391011113	5
15	52	1.031391011113	1
15	53	1.031391011113	1
15	53	1.031391011113	2
15	54	1.031441011113	2
15	54	1.031441011113	3
15	55	1.031621011113	3
15	55	1.031621011113	0
15	62	1.280829011113	0
15	62	1.280829011113	2
15	63	1.280879011113	2
15	63	1.280879011113	5
15	64	1.280879011113	5
15	64	1.280879011113	5
15	65	1.281391011113	5
15	65	1.281391011113	1
15	66	1.281391011113	1
15	66	1.281391011113	2
15	67	1.281441011113	2
15	67	1.281441011113	3
15	68	1.281821011113	3
15	68	1.281821011113	0
15	75	1.530829011113	0
15	75	1.530829011113	2
15	76	1.530879011113	2
15	76	1.530879011113	5
15	77	1.530879011113	5
15	77	1.530879011113	5
15	78	1.531391011113	5
15	78	1.531391011113	1
15	79	1.531391011113	1
15	79	1.531391011113	2
15	80	1.531441011113	2
15	80	1.531441011113	3
15	81	1.531861011113	3
15	81	1.531861011113	0
15	88	1.780829011113	0
15	88	1.780829011113	2
15	89	1.780879011113	2
15	89	1.780879011113	5
15	90	1.780879011113	5
15	90	1.780879011113	5
15	91	1.781391011113	5
15	91	1.781391011113	1
15	92	1.781391011113	1
15	92	1.781391011113	2
15	93	1.781441011113	2
15	93	1.781441011113	3
15	94	1.781801011113	3
15	94	1.781801011113	0
15	102	2.030829011113	0
15	102	2.030829011113	2
15	103	2.030879011113	2
15	103	2.030879011113	5
15	104	2.030879011113	5
15	104	2.030879011113	5
15	105	2.031391011113	5
15	105	2.031391011113	1
15	106	2.031391011113	1
15	106	2.031391011113	2
15	107	2.031441011113	2
15	107	2.031441011113	3
15	108	2.031521011113	3
15	108	2.031521011113	0
15	115	2.280829011113	0
15	115	2.280829011113	2
15	116	2.280879011113	2
15	116	2.280879011113	5
15	117	2.280879011113	5
15	117	2.280879011113	5
15	118	2.281391011113	5
15	118	2.281391011113	1
15	119	2.281391011113	1
15	119	2.281391011113	2
15	120	2.281441011113	2
15	120	2.281441011113	3
15	121	2.281901011113	3
15	121	2.281901011113	0
15	128	2.530829011113	0
15	128	2.530829011113	2
15	129	2.530879011113	2
15	129	2.530879011113	5
15	130	2.530879011113	5
15	130	2.530879011113	5
15	131	2.531391011113	5
15	131	2.531391011113	1
15	132	2.531391011113	1
15	132	2.531391011113	2
15	133	2.531441011113	2
15	133	2.531441011113	3
15	134	2.531561011113	3