version 2
run AODVUU-Simple-100-0-20150813-13:42:46-7558
attr configname AODVUU-Simple-100
attr datetime 20150813-13:42:46
attr experiment AODVUU-Simple-100
attr inifile omnetpp.ini
attr iterationvars ""
attr iterationvars2 $repetition=0
attr measurement ""
attr network AODVUUSim
attr processid 7558
attr repetition 0
attr replication #0
attr resultdir results
attr runnumber 0
attr seedset 0

vector 2  AODVUUSim.rsu[0].wlan.mgmt  dataQueueLen:vector  ETV
attr interpolationmode  sample-hold
attr title  "data queue length, vector"
vector 13  AODVUUSim.rsu[0].wlan.mac  RadioState  ETV
attr enum  "IDLE=0, OFF=4, RECV=1, SLEEP=3, TRANSMIT=2"
attr enumname  RadioState
vector 12  AODVUUSim.rsu[0].wlan.mac  State  ETV
attr enum  "BACKOFF=3, DEFER=1, IDLE=0, RECEIVE=8, WAITACK=4, WAITAIFS=2, WAITCTS=6, WAITMULTICAST=5, WAITSIFS=7"
attr enumname  Ieee80211Mac
vector 8  AODVUUSim.rsu[0].wlan.radio  bitrate:vector  ETV
attr interpolationmode  sample-hold
attr title  "tx bitrate, vector"
attr unit  bps
vector 10  AODVUUSim.rsu[0].wlan.radio  radioState:vector  ETV
attr interpolationmode  sample-hold
attr title  "radio state (enum), vector"
vector 9  AODVUUSim.rsu[0].wlan.radio  channelNo:vector  ETV
attr interpolationmode  sample-hold
attr title  "channel no, vector"
vector 25  AODVUUSim.vehicle[0].wlan.mgmt  dataQueueLen:vector  ETV
attr interpolationmode  sample-hold
attr title  "data queue length, vector"
vector 41  AODVUUSim.vehicle[0].wlan.mac  RadioState  ETV
attr enum  "IDLE=0, OFF=4, RECV=1, SLEEP=3, TRANSMIT=2"
attr enumname  RadioState
vector 40  AODVUUSim.vehicle[0].wlan.mac  State  ETV
attr enum  "BACKOFF=3, DEFER=1, IDLE=0, RECEIVE=8, WAITACK=4, WAITAIFS=2, WAITCTS=6, WAITMULTICAST=5, WAITSIFS=7"
attr enumname  Ieee80211Mac
vector 43  AODVUUSim.vehicle[0].wlan.mac  "throughput AC0"  ETV
vector 31  AODVUUSim.vehicle[0].wlan.radio  bitrate:vector  ETV
attr interpolationmode  sample-hold
attr title  "tx bitrate, vector"
attr unit  bps
vector 33  AODVUUSim.vehicle[0].wlan.radio  radioState:vector  ETV
attr interpolationmode  sample-hold
attr title  "radio state (enum), vector"
vector 32  AODVUUSim.vehicle[0].wlan.radio  channelNo:vector  ETV
attr interpolationmode  sample-hold
attr title  "channel no, vector"
vector 35  AODVUUSim.vehicle[0].mobility  posx  ETV
vector 36  AODVUUSim.vehicle[0].mobility  posy  ETV
vector 18  AODVUUSim.vehicle[0].udp  sentPk:vector(packetBytes)  ETV
attr interpolationmode  none
attr source  sentPk
attr title  "packets sent, vector(packetBytes)"
vector 29  AODVUUSim.vehicle[0].wlan.mac  rcvdPkFromHL:vector(packetBytes)  ETV
attr interpolationmode  none
attr source  packetReceivedFromUpper
attr title  "packets received from higher layer, vector(packetBytes)"
vector 28  AODVUUSim.vehicle[0].wlan.mac  sentDownPk:vector(packetBytes)  ETV
attr interpolationmode  none
attr source  packetSentToLower
attr title  "packets sent to lower layer, vector(packetBytes)"
vector 37  AODVUUSim.vehicle[0].mobility  speed  ETV
vector 38  AODVUUSim.vehicle[0].mobility  acceleration  ETV
vector 39  AODVUUSim.vehicle[0].mobility  co2emission  ETV
vector 53  AODVUUSim.vehicle[1].wlan.mgmt  dataQueueLen:vector  ETV
attr interpolationmode  sample-hold
attr title  "data queue length, vector"
vector 69  AODVUUSim.vehicle[1].wlan.mac  RadioState  ETV
attr enum  "IDLE=0, OFF=4, RECV=1, SLEEP=3, TRANSMIT=2"
attr enumname  RadioState
vector 68  AODVUUSim.vehicle[1].wlan.mac  State  ETV
attr enum  "BACKOFF=3, DEFER=1, IDLE=0, RECEIVE=8, WAITACK=4, WAITAIFS=2, WAITCTS=6, WAITMULTICAST=5, WAITSIFS=7"
attr enumname  Ieee80211Mac
vector 71  AODVUUSim.vehicle[1].wlan.mac  "throughput AC0"  ETV
vector 59  AODVUUSim.vehicle[1].wlan.radio  bitrate:vector  ETV
attr interpolationmode  sample-hold
attr title  "tx bitrate, vector"
attr unit  bps
vector 61  AODVUUSim.vehicle[1].wlan.radio  radioState:vector  ETV
attr interpolationmode  sample-hold
attr title  "radio state (enum), vector"
vector 60  AODVUUSim.vehicle[1].wlan.radio  channelNo:vector  ETV
attr interpolationmode  sample-hold
attr title  "channel no, vector"
vector 63  AODVUUSim.vehicle[1].mobility  posx  ETV
vector 64  AODVUUSim.vehicle[1].mobility  posy  ETV
vector 46  AODVUUSim.vehicle[1].udp  sentPk:vector(packetBytes)  ETV
attr interpolationmode  none
attr source  sentPk
attr title  "packets sent, vector(packetBytes)"
vector 57  AODVUUSim.vehicle[1].wlan.mac  rcvdPkFromHL:vector(packetBytes)  ETV
attr interpolationmode  none
attr source  packetReceivedFromUpper
attr title  "packets received from higher layer, vector(packetBytes)"
vector 56  AODVUUSim.vehicle[1].wlan.mac  sentDownPk:vector(packetBytes)  ETV
attr interpolationmode  none
attr source  packetSentToLower
attr title  "packets sent to lower layer, vector(packetBytes)"
vector 65  AODVUUSim.vehicle[1].mobility  speed  ETV
vector 66  AODVUUSim.vehicle[1].mobility  acceleration  ETV
vector 67  AODVUUSim.vehicle[1].mobility  co2emission  ETV
vector 81  AODVUUSim.vehicle[2].wlan.mgmt  dataQueueLen:vector  ETV
attr interpolationmode  sample-hold
attr title  "data queue length, vector"
vector 97  AODVUUSim.vehicle[2].wlan.mac  RadioState  ETV
attr enum  "IDLE=0, OFF=4, RECV=1, SLEEP=3, TRANSMIT=2"
attr enumname  RadioState
vector 96  AODVUUSim.vehicle[2].wlan.mac  State  ETV
attr enum  "BACKOFF=3, DEFER=1, IDLE=0, RECEIVE=8, WAITACK=4, WAITAIFS=2, WAITCTS=6, WAITMULTICAST=5, WAITSIFS=7"
attr enumname  Ieee80211Mac
vector 99  AODVUUSim.vehicle[2].wlan.mac  "throughput AC0"  ETV
vector 87  AODVUUSim.vehicle[2].wlan.radio  bitrate:vector  ETV
attr interpolationmode  sample-hold
attr title  "tx bitrate, vector"
attr unit  bps
vector 89  AODVUUSim.vehicle[2].wlan.radio  radioState:vector  ETV
attr interpolationmode  sample-hold
attr title  "radio state (enum), vector"
vector 88  AODVUUSim.vehicle[2].wlan.radio  channelNo:vector  ETV
attr interpolationmode  sample-hold
attr title  "channel no, vector"
vector 91  AODVUUSim.vehicle[2].mobility  posx  ETV
vector 92  AODVUUSim.vehicle[2].mobility  posy  ETV
vector 74  AODVUUSim.vehicle[2].udp  sentPk:vector(packetBytes)  ETV
attr interpolationmode  none
attr source  sentPk
attr title  "packets sent, vector(packetBytes)"
vector 85  AODVUUSim.vehicle[2].wlan.mac  rcvdPkFromHL:vector(packetBytes)  ETV
attr interpolationmode  none
attr source  packetReceivedFromUpper
attr title  "packets received from higher layer, vector(packetBytes)"
vector 84  AODVUUSim.vehicle[2].wlan.mac  sentDownPk:vector(packetBytes)  ETV
attr interpolationmode  none
attr source  packetSentToLower
attr title  "packets sent to lower layer, vector(packetBytes)"
vector 93  AODVUUSim.vehicle[2].mobility  speed  ETV
vector 94  AODVUUSim.vehicle[2].mobility  acceleration  ETV
vector 95  AODVUUSim.vehicle[2].mobility  co2emission  ETV
vector 109  AODVUUSim.vehicle[3].wlan.mgmt  dataQueueLen:vector  ETV
attr interpolationmode  sample-hold
attr title  "data queue length, vector"
vector 125  AODVUUSim.vehicle[3].wlan.mac  RadioState  ETV
attr enum  "IDLE=0, OFF=4, RECV=1, SLEEP=3, TRANSMIT=2"
attr enumname  RadioState
vector 124  AODVUUSim.vehicle[3].wlan.mac  State  ETV
attr enum  "BACKOFF=3, DEFER=1, IDLE=0, RECEIVE=8, WAITACK=4, WAITAIFS=2, WAITCTS=6, WAITMULTICAST=5, WAITSIFS=7"
attr enumname  Ieee80211Mac
vector 127  AODVUUSim.vehicle[3].wlan.mac  "throughput AC0"  ETV
vector 115  AODVUUSim.vehicle[3].wlan.radio  bitrate:vector  ETV
attr interpolationmode  sample-hold
attr title  "tx bitrate, vector"
attr unit  bps
vector 117  AODVUUSim.vehicle[3].wlan.radio  radioState:vector  ETV
attr interpolationmode  sample-hold
attr title  "radio state (enum), vector"
vector 116  AODVUUSim.vehicle[3].wlan.radio  channelNo:vector  ETV
attr interpolationmode  sample-hold
attr title  "channel no, vector"
vector 119  AODVUUSim.vehicle[3].mobility  posx  ETV
vector 120  AODVUUSim.vehicle[3].mobility  posy  ETV
vector 102  AODVUUSim.vehicle[3].udp  sentPk:vector(packetBytes)  ETV
attr interpolationmode  none
attr source  sentPk
attr title  "packets sent, vector(packetBytes)"
vector 113  AODVUUSim.vehicle[3].wlan.mac  rcvdPkFromHL:vector(packetBytes)  ETV
attr interpolationmode  none
attr source  packetReceivedFromUpper
attr title  "packets received from higher layer, vector(packetBytes)"
vector 112  AODVUUSim.vehicle[3].wlan.mac  sentDownPk:vector(packetBytes)  ETV
attr interpolationmode  none
attr source  packetSentToLower
attr title  "packets sent to lower layer, vector(packetBytes)"
vector 121  AODVUUSim.vehicle[3].mobility  speed  ETV
vector 122  AODVUUSim.vehicle[3].mobility  acceleration  ETV
vector 123  AODVUUSim.vehicle[3].mobility  co2emission  ETV
vector 137  AODVUUSim.vehicle[4].wlan.mgmt  dataQueueLen:vector  ETV
attr interpolationmode  sample-hold
attr title  "data queue length, vector"
vector 153  AODVUUSim.vehicle[4].wlan.mac  RadioState  ETV
attr enum  "IDLE=0, OFF=4, RECV=1, SLEEP=3, TRANSMIT=2"
attr enumname  RadioState
vector 152  AODVUUSim.vehicle[4].wlan.mac  State  ETV
attr enum  "BACKOFF=3, DEFER=1, IDLE=0, RECEIVE=8, WAITACK=4, WAITAIFS=2, WAITCTS=6, WAITMULTICAST=5, WAITSIFS=7"
attr enumname  Ieee80211Mac
vector 155  AODVUUSim.vehicle[4].wlan.mac  "throughput AC0"  ETV
vector 143  AODVUUSim.vehicle[4].wlan.radio  bitrate:vector  ETV
attr interpolationmode  sample-hold
attr title  "tx bitrate, vector"
attr unit  bps
vector 145  AODVUUSim.vehicle[4].wlan.radio  radioState:vector  ETV
attr interpolationmode  sample-hold
attr title  "radio state (enum), vector"
vector 144  AODVUUSim.vehicle[4].wlan.radio  channelNo:vector  ETV
attr interpolationmode  sample-hold
attr title  "channel no, vector"
vector 147  AODVUUSim.vehicle[4].mobility  posx  ETV
vector 148  AODVUUSim.vehicle[4].mobility  posy  ETV
vector 130  AODVUUSim.vehicle[4].udp  sentPk:vector(packetBytes)  ETV
attr interpolationmode  none
attr source  sentPk
attr title  "packets sent, vector(packetBytes)"
vector 141  AODVUUSim.vehicle[4].wlan.mac  rcvdPkFromHL:vector(packetBytes)  ETV
attr interpolationmode  none
attr source  packetReceivedFromUpper
attr title  "packets received from higher layer, vector(packetBytes)"
vector 140  AODVUUSim.vehicle[4].wlan.mac  sentDownPk:vector(packetBytes)  ETV
attr interpolationmode  none
attr source  packetSentToLower
attr title  "packets sent to lower layer, vector(packetBytes)"
vector 149  AODVUUSim.vehicle[4].mobility  speed  ETV
vector 150  AODVUUSim.vehicle[4].mobility  acceleration  ETV
vector 151  AODVUUSim.vehicle[4].mobility  co2emission  ETV
vector 165  AODVUUSim.vehicle[5].wlan.mgmt  dataQueueLen:vector  ETV
attr interpolationmode  sample-hold
attr title  "data queue length, vector"
vector 181  AODVUUSim.vehicle[5].wlan.mac  RadioState  ETV
attr enum  "IDLE=0, OFF=4, RECV=1, SLEEP=3, TRANSMIT=2"
attr enumname  RadioState
vector 180  AODVUUSim.vehicle[5].wlan.mac  State  ETV
attr enum  "BACKOFF=3, DEFER=1, IDLE=0, RECEIVE=8, WAITACK=4, WAITAIFS=2, WAITCTS=6, WAITMULTICAST=5, WAITSIFS=7"
attr enumname  Ieee80211Mac
vector 183  AODVUUSim.vehicle[5].wlan.mac  "throughput AC0"  ETV
vector 171  AODVUUSim.vehicle[5].wlan.radio  bitrate:vector  ETV
attr interpolationmode  sample-hold
attr title  "tx bitrate, vector"
attr unit  bps
vector 173  AODVUUSim.vehicle[5].wlan.radio  radioState:vector  ETV
attr interpolationmode  sample-hold
attr title  "radio state (enum), vector"
vector 172  AODVUUSim.vehicle[5].wlan.radio  channelNo:vector  ETV
attr interpolationmode  sample-hold
attr title  "channel no, vector"
vector 175  AODVUUSim.vehicle[5].mobility  posx  ETV
vector 176  AODVUUSim.vehicle[5].mobility  posy  ETV
vector 158  AODVUUSim.vehicle[5].udp  sentPk:vector(packetBytes)  ETV
attr interpolationmode  none
attr source  sentPk
attr title  "packets sent, vector(packetBytes)"
vector 169  AODVUUSim.vehicle[5].wlan.mac  rcvdPkFromHL:vector(packetBytes)  ETV
attr interpolationmode  none
attr source  packetReceivedFromUpper
attr title  "packets received from higher layer, vector(packetBytes)"
vector 168  AODVUUSim.vehicle[5].wlan.mac  sentDownPk:vector(packetBytes)  ETV
attr interpolationmode  none
attr source  packetSentToLower
attr title  "packets sent to lower layer, vector(packetBytes)"
vector 177  AODVUUSim.vehicle[5].mobility  speed  ETV
vector 178  AODVUUSim.vehicle[5].mobility  acceleration  ETV
vector 179  AODVUUSim.vehicle[5].mobility  co2emission  ETV
vector 193  AODVUUSim.vehicle[6].wlan.mgmt  dataQueueLen:vector  ETV
attr interpolationmode  sample-hold
attr title  "data queue length, vector"
vector 209  AODVUUSim.vehicle[6].wlan.mac  RadioState  ETV
attr enum  "IDLE=0, OFF=4, RECV=1, SLEEP=3, TRANSMIT=2"
attr enumname  RadioState
vector 208  AODVUUSim.vehicle[6].wlan.mac  State  ETV
attr enum  "BACKOFF=3, DEFER=1, IDLE=0, RECEIVE=8, WAITACK=4, WAITAIFS=2, WAITCTS=6, WAITMULTICAST=5, WAITSIFS=7"
attr enumname  Ieee80211Mac
vector 211  AODVUUSim.vehicle[6].wlan.mac  "throughput AC0"  ETV
vector 199  AODVUUSim.vehicle[6].wlan.radio  bitrate:vector  ETV
attr interpolationmode  sample-hold
attr title  "tx bitrate, vector"
attr unit  bps
vector 201  AODVUUSim.vehicle[6].wlan.radio  radioState:vector  ETV
attr interpolationmode  sample-hold
attr title  "radio state (enum), vector"
vector 200  AODVUUSim.vehicle[6].wlan.radio  channelNo:vector  ETV
attr interpolationmode  sample-hold
attr title  "channel no, vector"
vector 203  AODVUUSim.vehicle[6].mobility  posx  ETV
vector 204  AODVUUSim.vehicle[6].mobility  posy  ETV
vector 186  AODVUUSim.vehicle[6].udp  sentPk:vector(packetBytes)  ETV
attr interpolationmode  none
attr source  sentPk
attr title  "packets sent, vector(packetBytes)"
vector 197  AODVUUSim.vehicle[6].wlan.mac  rcvdPkFromHL:vector(packetBytes)  ETV
attr interpolationmode  none
attr source  packetReceivedFromUpper
attr title  "packets received from higher layer, vector(packetBytes)"
vector 196  AODVUUSim.vehicle[6].wlan.mac  sentDownPk:vector(packetBytes)  ETV
attr interpolationmode  none
attr source  packetSentToLower
attr title  "packets sent to lower layer, vector(packetBytes)"
vector 205  AODVUUSim.vehicle[6].mobility  speed  ETV
vector 206  AODVUUSim.vehicle[6].mobility  acceleration  ETV
vector 207  AODVUUSim.vehicle[6].mobility  co2emission  ETV
vector 221  AODVUUSim.vehicle[7].wlan.mgmt  dataQueueLen:vector  ETV
attr interpolationmode  sample-hold
attr title  "data queue length, vector"
vector 237  AODVUUSim.vehicle[7].wlan.mac  RadioState  ETV
attr enum  "IDLE=0, OFF=4, RECV=1, SLEEP=3, TRANSMIT=2"
attr enumname  RadioState
vector 236  AODVUUSim.vehicle[7].wlan.mac  State  ETV
attr enum  "BACKOFF=3, DEFER=1, IDLE=0, RECEIVE=8, WAITACK=4, WAITAIFS=2, WAITCTS=6, WAITMULTICAST=5, WAITSIFS=7"
attr enumname  Ieee80211Mac
vector 239  AODVUUSim.vehicle[7].wlan.mac  "throughput AC0"  ETV
vector 227  AODVUUSim.vehicle[7].wlan.radio  bitrate:vector  ETV
attr interpolationmode  sample-hold
attr title  "tx bitrate, vector"
attr unit  bps
vector 229  AODVUUSim.vehicle[7].wlan.radio  radioState:vector  ETV
attr interpolationmode  sample-hold
attr title  "radio state (enum), vector"
vector 228  AODVUUSim.vehicle[7].wlan.radio  channelNo:vector  ETV
attr interpolationmode  sample-hold
attr title  "channel no, vector"
vector 231  AODVUUSim.vehicle[7].mobility  posx  ETV
vector 232  AODVUUSim.vehicle[7].mobility  posy  ETV
vector 214  AODVUUSim.vehicle[7].udp  sentPk:vector(packetBytes)  ETV
attr interpolationmode  none
attr source  sentPk
attr title  "packets sent, vector(packetBytes)"
vector 225  AODVUUSim.vehicle[7].wlan.mac  rcvdPkFromHL:vector(packetBytes)  ETV
attr interpolationmode  none
attr source  packetReceivedFromUpper
attr title  "packets received from higher layer, vector(packetBytes)"
vector 224  AODVUUSim.vehicle[7].wlan.mac  sentDownPk:vector(packetBytes)  ETV
attr interpolationmode  none
attr source  packetSentToLower
attr title  "packets sent to lower layer, vector(packetBytes)"
vector 233  AODVUUSim.vehicle[7].mobility  speed  ETV
vector 234  AODVUUSim.vehicle[7].mobility  acceleration  ETV
vector 235  AODVUUSim.vehicle[7].mobility  co2emission  ETV
vector 249  AODVUUSim.vehicle[8].wlan.mgmt  dataQueueLen:vector  ETV
attr interpolationmode  sample-hold
attr title  "data queue length, vector"
vector 265  AODVUUSim.vehicle[8].wlan.mac  RadioState  ETV
attr enum  "IDLE=0, OFF=4, RECV=1, SLEEP=3, TRANSMIT=2"
attr enumname  RadioState
vector 264  AODVUUSim.vehicle[8].wlan.mac  State  ETV
attr enum  "BACKOFF=3, DEFER=1, IDLE=0, RECEIVE=8, WAITACK=4, WAITAIFS=2, WAITCTS=6, WAITMULTICAST=5, WAITSIFS=7"
attr enumname  Ieee80211Mac
vector 267  AODVUUSim.vehicle[8].wlan.mac  "throughput AC0"  ETV
vector 255  AODVUUSim.vehicle[8].wlan.radio  bitrate:vector  ETV
attr interpolationmode  sample-hold
attr title  "tx bitrate, vector"
attr unit  bps
vector 257  AODVUUSim.vehicle[8].wlan.radio  radioState:vector  ETV
attr interpolationmode  sample-hold
attr title  "radio state (enum), vector"
vector 256  AODVUUSim.vehicle[8].wlan.radio  channelNo:vector  ETV
attr interpolationmode  sample-hold
attr title  "channel no, vector"
vector 259  AODVUUSim.vehicle[8].mobility  posx  ETV
vector 260  AODVUUSim.vehicle[8].mobility  posy  ETV
vector 242  AODVUUSim.vehicle[8].udp  sentPk:vector(packetBytes)  ETV
attr interpolationmode  none
attr source  sentPk
attr title  "packets sent, vector(packetBytes)"
vector 253  AODVUUSim.vehicle[8].wlan.mac  rcvdPkFromHL:vector(packetBytes)  ETV
attr interpolationmode  none
attr source  packetReceivedFromUpper
attr title  "packets received from higher layer, vector(packetBytes)"
vector 252  AODVUUSim.vehicle[8].wlan.mac  sentDownPk:vector(packetBytes)  ETV
attr interpolationmode  none
attr source  packetSentToLower
attr title  "packets sent to lower layer, vector(packetBytes)"
vector 261  AODVUUSim.vehicle[8].mobility  speed  ETV
vector 262  AODVUUSim.vehicle[8].mobility  acceleration  ETV
vector 263  AODVUUSim.vehicle[8].mobility  co2emission  ETV
vector 277  AODVUUSim.vehicle[9].wlan.mgmt  dataQueueLen:vector  ETV
attr interpolationmode  sample-hold
attr title  "data queue length, vector"
vector 293  AODVUUSim.vehicle[9].wlan.mac  RadioState  ETV
attr enum  "IDLE=0, OFF=4, RECV=1, SLEEP=3, TRANSMIT=2"
attr enumname  RadioState
vector 292  AODVUUSim.vehicle[9].wlan.mac  State  ETV
attr enum  "BACKOFF=3, DEFER=1, IDLE=0, RECEIVE=8, WAITACK=4, WAITAIFS=2, WAITCTS=6, WAITMULTICAST=5, WAITSIFS=7"
attr enumname  Ieee80211Mac
vector 295  AODVUUSim.vehicle[9].wlan.mac  "throughput AC0"  ETV
vector 283  AODVUUSim.vehicle[9].wlan.radio  bitrate:vector  ETV
attr interpolationmode  sample-hold
attr title  "tx bitrate, vector"
attr unit  bps
vector 285  AODVUUSim.vehicle[9].wlan.radio  radioState:vector  ETV
attr interpolationmode  sample-hold
attr title  "radio state (enum), vector"
vector 284  AODVUUSim.vehicle[9].wlan.radio  channelNo:vector  ETV
attr interpolationmode  sample-hold
attr title  "channel no, vector"
vector 287  AODVUUSim.vehicle[9].mobility  posx  ETV
vector 288  AODVUUSim.vehicle[9].mobility  posy  ETV
vector 270  AODVUUSim.vehicle[9].udp  sentPk:vector(packetBytes)  ETV
attr interpolationmode  none
attr source  sentPk
attr title  "packets sent, vector(packetBytes)"
vector 281  AODVUUSim.vehicle[9].wlan.mac  rcvdPkFromHL:vector(packetBytes)  ETV
attr interpolationmode  none
attr source  packetReceivedFromUpper
attr title  "packets received from higher layer, vector(packetBytes)"
vector 280  AODVUUSim.vehicle[9].wlan.mac  sentDownPk:vector(packetBytes)  ETV
attr interpolationmode  none
attr source  packetSentToLower
attr title  "packets sent to lower layer, vector(packetBytes)"
vector 289  AODVUUSim.vehicle[9].mobility  speed  ETV
vector 290  AODVUUSim.vehicle[9].mobility  acceleration  ETV
vector 291  AODVUUSim.vehicle[9].mobility  co2emission  ETV
vector 305  AODVUUSim.vehicle[10].wlan.mgmt  dataQueueLen:vector  ETV
attr interpolationmode  sample-hold
attr title  "data queue length, vector"
vector 321  AODVUUSim.vehicle[10].wlan.mac  RadioState  ETV
attr enum  "IDLE=0, OFF=4, RECV=1, SLEEP=3, TRANSMIT=2"
attr enumname  RadioState
vector 320  AODVUUSim.vehicle[10].wlan.mac  State  ETV
attr enum  "BACKOFF=3, DEFER=1, IDLE=0, RECEIVE=8, WAITACK=4, WAITAIFS=2, WAITCTS=6, WAITMULTICAST=5, WAITSIFS=7"
attr enumname  Ieee80211Mac
vector 323  AODVUUSim.vehicle[10].wlan.mac  "throughput AC0"  ETV
vector 311  AODVUUSim.vehicle[10].wlan.radio  bitrate:vector  ETV
attr interpolationmode  sample-hold
attr title  "tx bitrate, vector"
attr unit  bps
vector 313  AODVUUSim.vehicle[10].wlan.radio  radioState:vector  ETV
attr interpolationmode  sample-hold
attr title  "radio state (enum), vector"
vector 312  AODVUUSim.vehicle[10].wlan.radio  channelNo:vector  ETV
attr interpolationmode  sample-hold
attr title  "channel no, vector"
vector 315  AODVUUSim.vehicle[10].mobility  posx  ETV
vector 316  AODVUUSim.vehicle[10].mobility  posy  ETV
vector 298  AODVUUSim.vehicle[10].udp  sentPk:vector(packetBytes)  ETV
attr interpolationmode  none
attr source  sentPk
attr title  "packets sent, vector(packetBytes)"
vector 309  AODVUUSim.vehicle[10].wlan.mac  rcvdPkFromHL:vector(packetBytes)  ETV
attr interpolationmode  none
attr source  packetReceivedFromUpper
attr title  "packets received from higher layer, vector(packetBytes)"
vector 308  AODVUUSim.vehicle[10].wlan.mac  sentDownPk:vector(packetBytes)  ETV
attr interpolationmode  none
attr source  packetSentToLower
attr title  "packets sent to lower layer, vector(packetBytes)"
vector 317  AODVUUSim.vehicle[10].mobility  speed  ETV
vector 318  AODVUUSim.vehicle[10].mobility  acceleration  ETV
vector 319  AODVUUSim.vehicle[10].mobility  co2emission  ETV
vector 333  AODVUUSim.vehicle[11].wlan.mgmt  dataQueueLen:vector  ETV
attr interpolationmode  sample-hold
attr title  "data queue length, vector"
vector 349  AODVUUSim.vehicle[11].wlan.mac  RadioState  ETV
attr enum  "IDLE=0, OFF=4, RECV=1, SLEEP=3, TRANSMIT=2"
attr enumname  RadioState
vector 348  AODVUUSim.vehicle[11].wlan.mac  State  ETV
attr enum  "BACKOFF=3, DEFER=1, IDLE=0, RECEIVE=8, WAITACK=4, WAITAIFS=2, WAITCTS=6, WAITMULTICAST=5, WAITSIFS=7"
attr enumname  Ieee80211Mac
vector 351  AODVUUSim.vehicle[11].wlan.mac  "throughput AC0"  ETV
vector 339  AODVUUSim.vehicle[11].wlan.radio  bitrate:vector  ETV
attr interpolationmode  sample-hold
attr title  "tx bitrate, vector"
attr unit  bps
vector 341  AODVUUSim.vehicle[11].wlan.radio  radioState:vector  ETV
attr interpolationmode  sample-hold
attr title  "radio state (enum), vector"
vector 340  AODVUUSim.vehicle[11].wlan.radio  channelNo:vector  ETV
attr interpolationmode  sample-hold
attr title  "channel no, vector"
vector 343  AODVUUSim.vehicle[11].mobility  posx  ETV
vector 344  AODVUUSim.vehicle[11].mobility  posy  ETV
vector 326  AODVUUSim.vehicle[11].udp  sentPk:vector(packetBytes)  ETV
attr interpolationmode  none
attr source  sentPk
attr title  "packets sent, vector(packetBytes)"
vector 337  AODVUUSim.vehicle[11].wlan.mac  rcvdPkFromHL:vector(packetBytes)  ETV
attr interpolationmode  none
attr source  packetReceivedFromUpper
attr title  "packets received from higher layer, vector(packetBytes)"
vector 336  AODVUUSim.vehicle[11].wlan.mac  sentDownPk:vector(packetBytes)  ETV
attr interpolationmode  none
attr source  packetSentToLower
attr title  "packets sent to lower layer, vector(packetBytes)"
vector 345  AODVUUSim.vehicle[11].mobility  speed  ETV
vector 346  AODVUUSim.vehicle[11].mobility  acceleration  ETV
vector 347  AODVUUSim.vehicle[11].mobility  co2emission  ETV
vector 361  AODVUUSim.vehicle[12].wlan.mgmt  dataQueueLen:vector  ETV
attr interpolationmode  sample-hold
attr title  "data queue length, vector"
vector 377  AODVUUSim.vehicle[12].wlan.mac  RadioState  ETV
attr enum  "IDLE=0, OFF=4, RECV=1, SLEEP=3, TRANSMIT=2"
attr enumname  RadioState
vector 376  AODVUUSim.vehicle[12].wlan.mac  State  ETV
attr enum  "BACKOFF=3, DEFER=1, IDLE=0, RECEIVE=8, WAITACK=4, WAITAIFS=2, WAITCTS=6, WAITMULTICAST=5, WAITSIFS=7"
attr enumname  Ieee80211Mac
vector 379  AODVUUSim.vehicle[12].wlan.mac  "throughput AC0"  ETV
vector 367  AODVUUSim.vehicle[12].wlan.radio  bitrate:vector  ETV
attr interpolationmode  sample-hold
attr title  "tx bitrate, vector"
attr unit  bps
vector 369  AODVUUSim.vehicle[12].wlan.radio  radioState:vector  ETV
attr interpolationmode  sample-hold
attr title  "radio state (enum), vector"
vector 368  AODVUUSim.vehicle[12].wlan.radio  channelNo:vector  ETV
attr interpolationmode  sample-hold
attr title  "channel no, vector"
vector 371  AODVUUSim.vehicle[12].mobility  posx  ETV
vector 372  AODVUUSim.vehicle[12].mobility  posy  ETV
vector 354  AODVUUSim.vehicle[12].udp  sentPk:vector(packetBytes)  ETV
attr interpolationmode  none
attr source  sentPk
attr title  "packets sent, vector(packetBytes)"
vector 365  AODVUUSim.vehicle[12].wlan.mac  rcvdPkFromHL:vector(packetBytes)  ETV
attr interpolationmode  none
attr source  packetReceivedFromUpper
attr title  "packets received from higher layer, vector(packetBytes)"
vector 364  AODVUUSim.vehicle[12].wlan.mac  sentDownPk:vector(packetBytes)  ETV
attr interpolationmode  none
attr source  packetSentToLower
attr title  "packets sent to lower layer, vector(packetBytes)"
vector 373  AODVUUSim.vehicle[12].mobility  speed  ETV
vector 374  AODVUUSim.vehicle[12].mobility  acceleration  ETV
vector 375  AODVUUSim.vehicle[12].mobility  co2emission  ETV
186	355	19.1	8
193	347	19.1	0
197	359	19.1	70
196	360	19.10005	70
200	347	19.1	0
199	347	19.1	2000000
201	347	19.1	0
201	361	19.10005	2
201	363	19.100802	0
207	367	19.3	1.446171671399
207	368	19.4	1.5648647122867
207	369	19.5	1.7741798137852
207	370	19.6	1.8741524393635
207	371	19.7	1.8351713879316
207	372	19.8	2.0235572240482
207	373	19.9	2.3124359753127
207	374	20	1.9838399106144
207	382	20.1	2.604409857968
207	383	20.2	2.2432218906091
207	384	20.3	2.2252303853875
207	385	20.4	2.1492827595397
207	386	20.5	2.513560353327
207	387	20.6	3.2313214016546
207	388	20.7	2.9785255340305
207	389	20.8	3.1831294449863
207	390	20.9	3.6410404844843
207	391	21	3.7411768175658
207	399	21.1	3.152274185318
207	418	21.2	3.8241383880636
207	419	21.3	3.6721590064009
207	420	21.4	4.4061824684986
207	421	21.5	3.1374560776725
207	422	21.6	3.5492181611435
207	423	21.7	4.2810867463443
207	424	21.8	4.5701077317413
207	425	21.9	5.1267652248305
207	426	22	5.0401147959913
207	435	22.1	5.4749715605975
207	436	22.2	5.0971641049104
207	437	22.3	3.8448315548097
207	438	22.4	5.3606386780019
207	439	22.5	3.8807374895403
207	440	22.6	5.5127323537349
207	441	22.7	5.4527843568819
207	442	22.8	5.9616853930813
207	443	22.9	6.0620671518667
207	444	23	4.6372253874771
207	453	23.1	5.8742561217667
207	454	23.2	5.3376088496958
207	455	23.3	4.5679563890495
207	456	23.4	4.5426724450019
207	457	23.5	5.4432487829114
207	458	23.6	7.3280772502704
207	459	23.7	4.6289383937938
207	460	23.8	5.6575919179194
207	461	23.9	6.728357824894
207	462	24	6.1324284920924
207	471	24.1	5.5015600889818
207	490	24.2	8.0765308610864
207	491	24.3	6.464497996837
207	492	24.4	8.0776597733399
207	493	24.5	8.4204187104332
207	494	24.6	7.3965980890202
207	495	24.7	5.9227599750737
207	496	24.8	6.7439473712287
207	497	24.9	7.1802574336672
207	498	25	6.110087402039
207	508	25.1	6.2482012218593
207	509	25.2	9.2673391425612
207	510	25.3	6.281179878193
207	511	25.4	6.8862210646318
207	512	25.5	6.2817732112234
207	513	25.6	7.3203355940292
207	514	25.7	7.7132900537622
207	515	25.8	9.1288861571498
207	516	25.9	10.169923880415
207	517	26	6.583419768924
207	527	26.1	5.0737949921341
207	546	26.2	1.1481160142544
207	547	26.3	4.5156775804242
207	548	26.4	0.973
207	549	26.5	3.494087403417
207	550	26.6	4.2772837509739
207	551	26.7	1.7757469833644
207	552	26.8	1.9818700540166
207	553	26.9	2.3759726369842
207	554	27	0.973
207	565	27.1	3.9295357015639
207	566	27.2	1.67379996308
207	567	27.3	0.973
207	568	27.4	3.6605145168744
207	569	27.5	0.973
207	570	27.6	2.8514587972473
207	571	27.7	1.1564559903499
207	572	27.8	1.90844986454
207	573	27.9	3.8656587134969
207	574	28	0.973
207	585	28.1	1.5367046108847
207	604	28.2	4.2248073370999
207	605	28.3	0.973
207	606	28.4	1.3854820726267
207	607	28.5	3.6146449163571
207	608	28.6	3.3231451432563
207	609	28.7	0.973
207	610	28.8	3.617102950604
207	611	28.9	0.973
207	612	29	1.8809732132631
207	624	29.1	2.7667484058819
207	625	29.2	3.3146610404765
207	626	29.3	2.2084263603651
207	627	29.4	0.973
207	628	29.5	1.2260264119679
207	629	29.6	2.9302120396244
207	630	29.7	2.3095533206458
207	631	29.8	0.973
207	632	29.9	2.4243555565468
207	633	30	5.4710215902051
207	645	30.1	1.7594131058635
207	664	30.2	0.973
207	665	30.3	1.4686112983921
207	666	30.4	1.8975533516411
207	667	30.5	3.1431399884067
207	668	30.6	1.2607520146035
207	669	30.7	2.8646556154873
207	670	30.8	3.3474646850346
207	671	30.9	0.973
207	672	31	4.4833343101616
207	685	31.1	2.6770484103928
207	686	31.2	0.973
207	687	31.3	5.988775355044
207	688	31.4	0.973
207	689	31.5	3.6300080117258
207	690	31.6	1.1679804855926
207	691	31.7	1.3000432287102
207	692	31.8	4.0104945859422
207	693	31.9	0.973
207	694	32	4.0095972144783
207	707	32.1	4.1467967543587
207	726	32.2	0.973
207	727	32.3	2.2274620457936
207	728	32.4	0.973
207	729	32.5	1.7448775665927
207	730	32.6	3.3058424561446
207	731	32.7	2.2660078612178
207	732	32.8	3.2256882691264
207	733	32.9	0.973
207	734	33	1.8945919054
207	748	33.1	3.2593374544282
207	749	33.2	1.9194904467623
207	750	33.3	1.7006178418671
207	751	33.4	2.5177727798709
207	752	33.5	3.9939558829697
207	753	33.6	0.973
207	754	33.7	4.0775180454636
207	755	33.8	3.2409254275531
207	756	33.9	0.973
207	757	34	2.1362752663961
207	771	34.1	3.9917636695723
207	772	34.2	1.9707923239711
207	773	34.3	0.973
207	774	34.4	5.2723787211304
207	775	34.5	0.973
207	776	34.6	4.2283402712237
207	777	34.7	0.973
207	778	34.8	3.2810773697332
207	779	34.9	3.3547818288384
207	780	35	1.3572867448143
207	794	35.1	2.6041262401512
207	795	35.2	1.9325364250997
207	796	35.3	3.1155018256703
207	797	35.4	1.8751118348642
207	798	35.5	2.1821562465523
207	799	35.6	0.973
207	800	35.7	1.6303998972728
207	801	35.8	3.7736668924922
207	802	35.9	1.5148435973816
207	803	36	1.9487350625427